 TITLE = "velosity"
 VARIABLES = "X", "Y", "E_psi", "E_u", "E_v", "E_om"
ZONE T="area", I=31, J=51, F=POINT
  0.10000E+01   0.00000E+00   0.00000E+00   0.12434E-02   0.00000E+00   0.87874E-02
  0.11333E+01   0.00000E+00   0.00000E+00   0.60492E-04   0.00000E+00   0.00000E+00
  0.12667E+01   0.00000E+00   0.00000E+00   0.54414E-04   0.00000E+00   0.00000E+00
  0.14000E+01   0.00000E+00   0.00000E+00   0.36080E-04   0.00000E+00   0.00000E+00
  0.15333E+01   0.00000E+00   0.00000E+00   0.29257E-04   0.00000E+00   0.00000E+00
  0.16667E+01   0.00000E+00   0.00000E+00   0.10903E-04   0.00000E+00   0.00000E+00
  0.18000E+01   0.00000E+00   0.00000E+00   0.95869E-06   0.00000E+00   0.00000E+00
  0.19333E+01   0.00000E+00   0.00000E+00   0.12548E-04   0.00000E+00   0.00000E+00
  0.20667E+01   0.00000E+00   0.00000E+00   0.22907E-04   0.00000E+00   0.00000E+00
  0.22000E+01   0.00000E+00   0.00000E+00   0.31822E-04   0.00000E+00   0.00000E+00
  0.23333E+01   0.00000E+00   0.00000E+00   0.38140E-04   0.00000E+00   0.00000E+00
  0.24667E+01   0.00000E+00   0.00000E+00   0.44710E-04   0.00000E+00   0.00000E+00
  0.26000E+01   0.00000E+00   0.00000E+00   0.49674E-04   0.00000E+00   0.00000E+00
  0.27333E+01   0.00000E+00   0.00000E+00   0.51721E-04   0.00000E+00   0.00000E+00
  0.28667E+01   0.00000E+00   0.00000E+00   0.53936E-04   0.00000E+00   0.00000E+00
  0.30000E+01   0.00000E+00   0.00000E+00   0.55593E-04   0.00000E+00   0.00000E+00
  0.31333E+01   0.00000E+00   0.00000E+00   0.55910E-04   0.00000E+00   0.00000E+00
  0.32667E+01   0.00000E+00   0.00000E+00   0.54575E-04   0.00000E+00   0.00000E+00
  0.34000E+01   0.00000E+00   0.00000E+00   0.51462E-04   0.00000E+00   0.00000E+00
  0.35333E+01   0.00000E+00   0.00000E+00   0.46403E-04   0.00000E+00   0.00000E+00
  0.36667E+01   0.00000E+00   0.00000E+00   0.39033E-04   0.00000E+00   0.00000E+00
  0.38000E+01   0.00000E+00   0.00000E+00   0.28624E-04   0.00000E+00   0.00000E+00
  0.39333E+01   0.00000E+00   0.00000E+00   0.14075E-04   0.00000E+00   0.00000E+00
  0.40667E+01   0.00000E+00   0.00000E+00   0.82032E-05   0.00000E+00   0.00000E+00
  0.42000E+01   0.00000E+00   0.00000E+00   0.34204E-04   0.00000E+00   0.00000E+00
  0.43333E+01   0.00000E+00   0.00000E+00   0.89435E-04   0.00000E+00   0.00000E+00
  0.44667E+01   0.00000E+00   0.00000E+00   0.17289E-03   0.00000E+00   0.00000E+00
  0.46000E+01   0.00000E+00   0.00000E+00   0.25076E-03   0.00000E+00   0.00000E+00
  0.47333E+01   0.00000E+00   0.00000E+00   0.34660E-03   0.00000E+00   0.00000E+00
  0.48667E+01   0.00000E+00   0.19996E-06   0.55552E-03   0.16394E-04   0.00000E+00
  0.50000E+01   0.00000E+00   0.61426E-05   0.00000E+00   0.00000E+00   0.00000E+00
  0.99803E+00   0.62791E-01   0.00000E+00   0.00000E+00   0.00000E+00   0.23063E-03
  0.11311E+01   0.71163E-01   0.94077E-06   0.31494E-05   0.56212E-05   0.17873E-03
  0.12642E+01   0.79535E-01   0.51978E-08   0.78668E-05   0.77054E-05   0.57785E-04
  0.13972E+01   0.87907E-01   0.11965E-05   0.20689E-04   0.84441E-05   0.31725E-04
  0.15303E+01   0.96279E-01   0.25834E-05   0.32986E-04   0.89291E-05   0.21302E-04
  0.16634E+01   0.10465E+00   0.41054E-05   0.44443E-04   0.90332E-05   0.15660E-04
  0.17964E+01   0.11302E+00   0.57263E-05   0.54916E-04   0.88957E-05   0.11970E-04
  0.19295E+01   0.12140E+00   0.74183E-05   0.64502E-04   0.88888E-05   0.93981E-05
  0.20626E+01   0.12977E+00   0.91567E-05   0.73562E-04   0.86255E-05   0.78163E-05
  0.21957E+01   0.13814E+00   0.10937E-04   0.81463E-04   0.83266E-05   0.62646E-05
  0.23287E+01   0.14651E+00   0.12737E-04   0.88975E-04   0.79955E-05   0.53674E-05
  0.24618E+01   0.15488E+00   0.14558E-04   0.95601E-04   0.77684E-05   0.44209E-05
  0.25949E+01   0.16326E+00   0.16389E-04   0.10168E-03   0.73566E-05   0.36907E-05
  0.27279E+01   0.17163E+00   0.18225E-04   0.10732E-03   0.70274E-05   0.32104E-05
  0.28610E+01   0.18000E+00   0.20063E-04   0.11241E-03   0.67582E-05   0.27247E-05
  0.29941E+01   0.18837E+00   0.21901E-04   0.11703E-03   0.64632E-05   0.22834E-05
  0.31272E+01   0.19674E+00   0.23735E-04   0.12124E-03   0.61462E-05   0.19124E-05
  0.32602E+01   0.20512E+00   0.25562E-04   0.12511E-03   0.58303E-05   0.16047E-05
  0.33933E+01   0.21349E+00   0.27380E-04   0.12865E-03   0.55221E-05   0.13451E-05
  0.35264E+01   0.22186E+00   0.29186E-04   0.13189E-03   0.52163E-05   0.11201E-05
  0.36594E+01   0.23023E+00   0.30977E-04   0.13483E-03   0.49014E-05   0.92066E-06
  0.37925E+01   0.23860E+00   0.32748E-04   0.13750E-03   0.45587E-05   0.74136E-06
  0.39256E+01   0.24698E+00   0.34491E-04   0.13992E-03   0.41546E-05   0.57967E-06
  0.40586E+01   0.25535E+00   0.36191E-04   0.14209E-03   0.36212E-05   0.43436E-06
  0.41917E+01   0.26372E+00   0.37821E-04   0.14407E-03   0.28146E-05   0.30457E-06
  0.43248E+01   0.27209E+00   0.39327E-04   0.14605E-03   0.14322E-05   0.18924E-06
  0.44579E+01   0.28046E+00   0.40601E-04   0.14886E-03   0.10344E-05   0.86821E-07
  0.45909E+01   0.28884E+00   0.41504E-04   0.15587E-03   0.43249E-05   0.46761E-08
  0.47240E+01   0.29721E+00   0.42581E-04   0.17424E-03   0.42815E-05   0.87994E-07
  0.48571E+01   0.30558E+00   0.43367E-04   0.46456E-03   0.13623E-03   0.55613E-06
  0.49901E+01   0.31395E+00   0.39776E-04   0.23319E-03   0.88092E-03   0.00000E+00
  0.99211E+00   0.12533E+00   0.00000E+00   0.88818E-16   0.00000E+00   0.27150E-03
  0.11244E+01   0.14204E+00   0.87711E-06   0.54311E-05   0.63800E-05   0.20176E-03
  0.12567E+01   0.15876E+00   0.72206E-06   0.12862E-04   0.13850E-04   0.95979E-04
  0.13890E+01   0.17547E+00   0.30314E-05   0.23992E-04   0.16099E-04   0.58579E-04
  0.15212E+01   0.19218E+00   0.57312E-05   0.35574E-04   0.17051E-04   0.41018E-04
  0.16535E+01   0.20889E+00   0.87018E-05   0.46685E-04   0.17379E-04   0.30818E-04
  0.17858E+01   0.22560E+00   0.11869E-04   0.57049E-04   0.17338E-04   0.23881E-04
  0.19181E+01   0.24231E+00   0.15182E-04   0.66597E-04   0.17074E-04   0.18929E-04
  0.20504E+01   0.25902E+00   0.18601E-04   0.75337E-04   0.16657E-04   0.15836E-04
  0.21827E+01   0.27573E+00   0.22098E-04   0.83312E-04   0.16150E-04   0.12768E-04
  0.23149E+01   0.29244E+00   0.25652E-04   0.90579E-04   0.15589E-04   0.10971E-04
  0.24472E+01   0.30916E+00   0.29245E-04   0.97198E-04   0.15001E-04   0.90709E-05
  0.25795E+01   0.32587E+00   0.32865E-04   0.10323E-03   0.14395E-04   0.75966E-05
  0.27118E+01   0.34258E+00   0.36501E-04   0.10872E-03   0.13790E-04   0.66168E-05
  0.28441E+01   0.35929E+00   0.40145E-04   0.11374E-03   0.13192E-04   0.56275E-05
  0.29763E+01   0.37600E+00   0.43790E-04   0.11831E-03   0.12600E-04   0.47286E-05
  0.31086E+01   0.39271E+00   0.47431E-04   0.12250E-03   0.12016E-04   0.39714E-05
  0.32409E+01   0.40942E+00   0.51062E-04   0.12632E-03   0.11442E-04   0.33417E-05
  0.33732E+01   0.42613E+00   0.54678E-04   0.12982E-03   0.10874E-04   0.28094E-05
  0.35055E+01   0.44284E+00   0.58276E-04   0.13302E-03   0.10309E-04   0.23477E-05
  0.36378E+01   0.45956E+00   0.61850E-04   0.13596E-03   0.97393E-05   0.19382E-05
  0.37700E+01   0.47627E+00   0.65395E-04   0.13867E-03   0.91550E-05   0.15701E-05
  0.39023E+01   0.49298E+00   0.68905E-04   0.14119E-03   0.85442E-05   0.12382E-05
  0.40346E+01   0.50969E+00   0.72372E-04   0.14357E-03   0.78980E-05   0.93962E-06
  0.41669E+01   0.52640E+00   0.75791E-04   0.14590E-03   0.72295E-05   0.67249E-06
  0.42992E+01   0.54311E+00   0.79164E-04   0.14829E-03   0.66236E-05   0.43408E-06
  0.44314E+01   0.55982E+00   0.82514E-04   0.15080E-03   0.63214E-05   0.22031E-06
  0.45637E+01   0.57653E+00   0.85906E-04   0.15321E-03   0.66984E-05   0.25456E-07
  0.46960E+01   0.59324E+00   0.89431E-04   0.15846E-03   0.72275E-05   0.15785E-06
  0.48283E+01   0.60996E+00   0.88276E-04   0.46035E-03   0.17806E-04   0.11122E-05
  0.49606E+01   0.62667E+00   0.81899E-04   0.24598E-03   0.32518E-03   0.00000E+00
  0.98229E+00   0.18738E+00   0.00000E+00   0.00000E+00   0.00000E+00   0.20612E-03
  0.11133E+01   0.21237E+00   0.39325E-06   0.99536E-05   0.72204E-05   0.17942E-03
  0.12442E+01   0.23735E+00   0.17446E-05   0.18285E-04   0.18278E-04   0.11531E-03
  0.13752E+01   0.26233E+00   0.50406E-05   0.28634E-04   0.22537E-04   0.78930E-04
  0.15062E+01   0.28732E+00   0.89830E-05   0.39645E-04   0.24381E-04   0.57948E-04
  0.16371E+01   0.31230E+00   0.13357E-04   0.50382E-04   0.25088E-04   0.44554E-04
  0.17681E+01   0.33729E+00   0.18040E-04   0.60478E-04   0.25159E-04   0.34965E-04
  0.18991E+01   0.36227E+00   0.22948E-04   0.69815E-04   0.24858E-04   0.27934E-04
  0.20301E+01   0.38725E+00   0.28022E-04   0.78373E-04   0.24309E-04   0.23501E-04
  0.21610E+01   0.41224E+00   0.33219E-04   0.86186E-04   0.23611E-04   0.19018E-04
  0.22920E+01   0.43722E+00   0.38504E-04   0.93304E-04   0.22823E-04   0.16388E-04
  0.24230E+01   0.46221E+00   0.43852E-04   0.99786E-04   0.21990E-04   0.13579E-04
  0.25539E+01   0.48719E+00   0.49243E-04   0.10569E-03   0.21124E-04   0.11391E-04
  0.26849E+01   0.51218E+00   0.54662E-04   0.11106E-03   0.20254E-04   0.99350E-05
  0.28159E+01   0.53716E+00   0.60095E-04   0.11596E-03   0.19392E-04   0.84595E-05
  0.29469E+01   0.56214E+00   0.65533E-04   0.12044E-03   0.18538E-04   0.71163E-05
  0.30778E+01   0.58713E+00   0.70966E-04   0.12452E-03   0.17697E-04   0.59831E-05
  0.32088E+01   0.61211E+00   0.76388E-04   0.12825E-03   0.16871E-04   0.50397E-05
  0.33398E+01   0.63710E+00   0.81792E-04   0.13167E-03   0.16062E-04   0.42414E-05
  0.34707E+01   0.66208E+00   0.87173E-04   0.13481E-03   0.15268E-04   0.35485E-05
  0.36017E+01   0.68706E+00   0.92526E-04   0.13770E-03   0.14488E-04   0.29333E-05
  0.37327E+01   0.71205E+00   0.97848E-04   0.14036E-03   0.13723E-04   0.23802E-05
  0.38637E+01   0.73703E+00   0.10313E-03   0.14284E-03   0.12978E-04   0.18811E-05
  0.39946E+01   0.76202E+00   0.10838E-03   0.14515E-03   0.12266E-04   0.14318E-05
  0.41256E+01   0.78700E+00   0.11360E-03   0.14733E-03   0.11612E-04   0.10293E-05
  0.42566E+01   0.81199E+00   0.11879E-03   0.14936E-03   0.11053E-04   0.66948E-06
  0.43875E+01   0.83697E+00   0.12396E-03   0.15123E-03   0.10626E-04   0.34600E-06
  0.45185E+01   0.86195E+00   0.12913E-03   0.15286E-03   0.10319E-04   0.50345E-07
  0.46495E+01   0.88694E+00   0.13430E-03   0.15786E-03   0.93142E-05   0.22822E-06
  0.47805E+01   0.91192E+00   0.13227E-03   0.45361E-03   0.22384E-04   0.16665E-05
  0.49114E+01   0.93691E+00   0.12244E-03   0.24049E-03   0.17344E-03   0.00000E+00
  0.96858E+00   0.24869E+00   0.00000E+00   0.88818E-16   0.00000E+00   0.20343E-03
  0.10977E+01   0.28185E+00   0.26537E-06   0.12654E-04   0.97698E-05   0.16304E-03
  0.12269E+01   0.31501E+00   0.30060E-05   0.23187E-04   0.22050E-04   0.12492E-03
  0.13560E+01   0.34817E+00   0.72288E-05   0.33803E-04   0.28006E-04   0.93865E-04
  0.14852E+01   0.38132E+00   0.12353E-04   0.44627E-04   0.30839E-04   0.72038E-04
  0.16143E+01   0.41448E+00   0.18081E-04   0.55118E-04   0.32041E-04   0.56675E-04
  0.17434E+01   0.44764E+00   0.24238E-04   0.64979E-04   0.32314E-04   0.45052E-04
  0.18726E+01   0.48080E+00   0.30707E-04   0.74097E-04   0.32043E-04   0.36280E-04
  0.20017E+01   0.51396E+00   0.37404E-04   0.82448E-04   0.31414E-04   0.30704E-04
  0.21309E+01   0.54712E+00   0.44270E-04   0.90065E-04   0.30568E-04   0.24932E-04
  0.22600E+01   0.58028E+00   0.51259E-04   0.96997E-04   0.29590E-04   0.21550E-04
  0.23892E+01   0.61344E+00   0.58336E-04   0.10330E-03   0.28542E-04   0.17890E-04
  0.25183E+01   0.64659E+00   0.65473E-04   0.10903E-03   0.27443E-04   0.15032E-04
  0.26475E+01   0.67975E+00   0.72649E-04   0.11425E-03   0.26335E-04   0.13129E-04
  0.27766E+01   0.71291E+00   0.79847E-04   0.11900E-03   0.25233E-04   0.11190E-04
  0.29057E+01   0.74607E+00   0.87054E-04   0.12333E-03   0.24140E-04   0.94212E-05
  0.30349E+01   0.77923E+00   0.94257E-04   0.12727E-03   0.23064E-04   0.79266E-05
  0.31640E+01   0.81239E+00   0.10145E-03   0.13088E-03   0.22010E-04   0.66810E-05
  0.32932E+01   0.84555E+00   0.10862E-03   0.13418E-03   0.20981E-04   0.56262E-05
  0.34223E+01   0.87870E+00   0.11576E-03   0.13720E-03   0.19980E-04   0.47097E-05
  0.35515E+01   0.91186E+00   0.12288E-03   0.13997E-03   0.19008E-04   0.38955E-05
  0.36806E+01   0.94502E+00   0.12996E-03   0.14252E-03   0.18067E-04   0.31628E-05
  0.38098E+01   0.97818E+00   0.13700E-03   0.14487E-03   0.17164E-04   0.25013E-05
  0.39389E+01   0.10113E+01   0.14400E-03   0.14703E-03   0.16304E-04   0.19054E-05
  0.40680E+01   0.10445E+01   0.15096E-03   0.14902E-03   0.15495E-04   0.13713E-05
  0.41972E+01   0.10777E+01   0.15788E-03   0.15083E-03   0.14741E-04   0.89328E-06
  0.43263E+01   0.11108E+01   0.16477E-03   0.15246E-03   0.14039E-04   0.46330E-06
  0.44555E+01   0.11440E+01   0.17162E-03   0.15392E-03   0.13371E-04   0.70002E-07
  0.45846E+01   0.11771E+01   0.17843E-03   0.15875E-03   0.11744E-04   0.30073E-06
  0.47138E+01   0.12103E+01   0.17564E-03   0.44568E-03   0.46876E-04   0.22129E-05
  0.48429E+01   0.12434E+01   0.16251E-03   0.23675E-03   0.11429E-03   0.00000E+00
  0.95106E+00   0.30902E+00   0.00000E+00   0.18319E-15   0.52206E-16   0.21430E-03
  0.10779E+01   0.35022E+00   0.98213E-06   0.15083E-04   0.13392E-04   0.15763E-03
  0.12047E+01   0.39142E+00   0.44178E-05   0.27678E-04   0.25785E-04   0.13172E-03
  0.13315E+01   0.43262E+00   0.95586E-05   0.39159E-04   0.32825E-04   0.10544E-03
  0.14583E+01   0.47383E+00   0.15824E-04   0.50187E-04   0.36507E-04   0.83834E-04
  0.15851E+01   0.51503E+00   0.22862E-04   0.60627E-04   0.38206E-04   0.67298E-04
  0.17119E+01   0.55623E+00   0.30451E-04   0.70339E-04   0.38720E-04   0.54133E-04
  0.18387E+01   0.59743E+00   0.38440E-04   0.79270E-04   0.38525E-04   0.43924E-04
  0.19655E+01   0.63864E+00   0.46723E-04   0.87418E-04   0.37858E-04   0.37393E-04
  0.20923E+01   0.67984E+00   0.55222E-04   0.94826E-04   0.36904E-04   0.30463E-04
  0.22191E+01   0.72104E+00   0.63879E-04   0.10155E-03   0.35772E-04   0.26416E-04
  0.23459E+01   0.76224E+00   0.72650E-04   0.10765E-03   0.34543E-04   0.21969E-04
  0.24727E+01   0.80344E+00   0.81499E-04   0.11318E-03   0.33243E-04   0.18487E-04
  0.25996E+01   0.84465E+00   0.90400E-04   0.11820E-03   0.31926E-04   0.16170E-04
  0.27264E+01   0.88585E+00   0.99331E-04   0.12277E-03   0.30612E-04   0.13796E-04
  0.28532E+01   0.92705E+00   0.10828E-03   0.12692E-03   0.29306E-04   0.11623E-04
  0.29800E+01   0.96825E+00   0.11722E-03   0.13070E-03   0.28019E-04   0.97847E-05
  0.31068E+01   0.10095E+01   0.12615E-03   0.13414E-03   0.26760E-04   0.82511E-05
  0.32336E+01   0.10507E+01   0.13506E-03   0.13728E-03   0.25532E-04   0.69512E-05
  0.33604E+01   0.10919E+01   0.14393E-03   0.14014E-03   0.24339E-04   0.58208E-05
  0.34872E+01   0.11331E+01   0.15277E-03   0.14276E-03   0.23184E-04   0.48158E-05
  0.36140E+01   0.11743E+01   0.16158E-03   0.14516E-03   0.22067E-04   0.39107E-05
  0.37408E+01   0.12155E+01   0.17033E-03   0.14735E-03   0.20991E-04   0.30928E-05
  0.38676E+01   0.12567E+01   0.17904E-03   0.14934E-03   0.19957E-04   0.23558E-05
  0.39944E+01   0.12979E+01   0.18770E-03   0.15116E-03   0.18964E-04   0.16948E-05
  0.41212E+01   0.13391E+01   0.19631E-03   0.15280E-03   0.18010E-04   0.11031E-05
  0.42481E+01   0.13803E+01   0.20486E-03   0.15428E-03   0.17090E-04   0.57065E-06
  0.43749E+01   0.14215E+01   0.21335E-03   0.15562E-03   0.16192E-04   0.83470E-07
  0.45017E+01   0.14627E+01   0.22178E-03   0.16022E-03   0.14123E-04   0.37589E-06
  0.46285E+01   0.15039E+01   0.21829E-03   0.43620E-03   0.66067E-04   0.27486E-05
  0.47553E+01   0.15451E+01   0.20193E-03   0.23410E-03   0.82179E-04   0.21957E-17
  0.92978E+00   0.36812E+00   0.00000E+00   0.00000E+00   0.00000E+00   0.23414E-03
  0.10537E+01   0.41721E+00   0.17085E-05   0.17823E-04   0.17428E-04   0.16012E-03
  0.11777E+01   0.46629E+00   0.59068E-05   0.32113E-04   0.29594E-04   0.13875E-03
  0.13017E+01   0.51537E+00   0.11978E-04   0.44659E-04   0.37202E-04   0.11535E-03
  0.14257E+01   0.56446E+00   0.19362E-04   0.56148E-04   0.41489E-04   0.94042E-04
  0.15496E+01   0.61354E+00   0.27673E-04   0.66713E-04   0.43603E-04   0.76699E-04
  0.16736E+01   0.66262E+00   0.36652E-04   0.76376E-04   0.44346E-04   0.62310E-04
  0.17976E+01   0.71171E+00   0.46119E-04   0.85173E-04   0.44241E-04   0.50894E-04
  0.19215E+01   0.76079E+00   0.55945E-04   0.93137E-04   0.43565E-04   0.43566E-04
  0.20455E+01   0.80987E+00   0.66036E-04   0.10034E-03   0.42534E-04   0.35597E-04
  0.21695E+01   0.85896E+00   0.76320E-04   0.10684E-03   0.41281E-04   0.30964E-04
  0.22934E+01   0.90804E+00   0.86744E-04   0.11272E-03   0.39903E-04   0.25796E-04
  0.24174E+01   0.95712E+00   0.97266E-04   0.11803E-03   0.38434E-04   0.21737E-04
  0.25414E+01   0.10062E+01   0.10785E-03   0.12284E-03   0.36939E-04   0.19042E-04
  0.26654E+01   0.10553E+01   0.11848E-03   0.12719E-03   0.35441E-04   0.16261E-04
  0.27893E+01   0.11044E+01   0.12912E-03   0.13114E-03   0.33950E-04   0.13708E-04
  0.29133E+01   0.11535E+01   0.13976E-03   0.13471E-03   0.32478E-04   0.11545E-04
  0.30373E+01   0.12025E+01   0.15039E-03   0.13796E-03   0.31037E-04   0.97392E-05
  0.31612E+01   0.12516E+01   0.16100E-03   0.14091E-03   0.29631E-04   0.82073E-05
  0.32852E+01   0.13007E+01   0.17157E-03   0.14360E-03   0.28264E-04   0.68740E-05
  0.34092E+01   0.13498E+01   0.18210E-03   0.14603E-03   0.26939E-04   0.56874E-05
  0.35332E+01   0.13989E+01   0.19258E-03   0.14825E-03   0.25656E-04   0.46181E-05
  0.36571E+01   0.14480E+01   0.20301E-03   0.15026E-03   0.24414E-04   0.36511E-05
  0.37811E+01   0.14970E+01   0.21338E-03   0.15209E-03   0.23213E-04   0.27794E-05
  0.39051E+01   0.15461E+01   0.22370E-03   0.15373E-03   0.22051E-04   0.19973E-05
  0.40290E+01   0.15952E+01   0.23394E-03   0.15522E-03   0.20924E-04   0.12970E-05
  0.41530E+01   0.16443E+01   0.24412E-03   0.15655E-03   0.19828E-04   0.66675E-06
  0.42770E+01   0.16934E+01   0.25422E-03   0.15775E-03   0.18754E-04   0.90042E-07
  0.44009E+01   0.17425E+01   0.26425E-03   0.16207E-03   0.16320E-04   0.45384E-06
  0.45249E+01   0.17915E+01   0.26006E-03   0.42513E-03   0.82147E-04   0.32714E-05
  0.46489E+01   0.18406E+01   0.24055E-03   0.23198E-03   0.62082E-04   0.00000E+00
  0.90483E+00   0.42578E+00   0.00000E+00   0.33307E-16   0.00000E+00   0.25852E-03
  0.10255E+01   0.48255E+00   0.24235E-05   0.21047E-04   0.21450E-04   0.16758E-03
  0.11461E+01   0.53932E+00   0.74222E-05   0.36754E-04   0.33354E-04   0.14691E-03
  0.12668E+01   0.59609E+00   0.14438E-04   0.50364E-04   0.41198E-04   0.12464E-03
  0.13874E+01   0.65286E+00   0.22926E-04   0.62440E-04   0.45852E-04   0.10326E-03
  0.15080E+01   0.70963E+00   0.32478E-04   0.73249E-04   0.48260E-04   0.85184E-04
  0.16287E+01   0.76640E+00   0.42808E-04   0.82947E-04   0.49183E-04   0.69732E-04
  0.17493E+01   0.82317E+00   0.53709E-04   0.91661E-04   0.49159E-04   0.57262E-04
  0.18700E+01   0.87994E+00   0.65033E-04   0.99468E-04   0.48483E-04   0.49254E-04
  0.19906E+01   0.93671E+00   0.76669E-04   0.10647E-03   0.47397E-04   0.40345E-04
  0.21113E+01   0.99349E+00   0.88534E-04   0.11275E-03   0.46050E-04   0.35196E-04
  0.22319E+01   0.10503E+01   0.10056E-03   0.11840E-03   0.44552E-04   0.29364E-04
  0.23526E+01   0.11070E+01   0.11271E-03   0.12348E-03   0.42944E-04   0.24775E-04
  0.24732E+01   0.11638E+01   0.12494E-03   0.12805E-03   0.41300E-04   0.21734E-04
  0.25938E+01   0.12206E+01   0.13721E-03   0.13217E-03   0.39649E-04   0.18576E-04
  0.27145E+01   0.12773E+01   0.14950E-03   0.13589E-03   0.38001E-04   0.15667E-04
  0.28351E+01   0.13341E+01   0.16180E-03   0.13924E-03   0.36371E-04   0.13200E-04
  0.29558E+01   0.13909E+01   0.17408E-03   0.14228E-03   0.34773E-04   0.11138E-04
  0.30764E+01   0.14476E+01   0.18634E-03   0.14502E-03   0.33212E-04   0.93880E-05
  0.31971E+01   0.15044E+01   0.19856E-03   0.14749E-03   0.31693E-04   0.78635E-05
  0.33177E+01   0.15612E+01   0.21073E-03   0.14973E-03   0.30218E-04   0.65057E-05
  0.34383E+01   0.16180E+01   0.22285E-03   0.15176E-03   0.28786E-04   0.52811E-05
  0.35590E+01   0.16747E+01   0.23490E-03   0.15358E-03   0.27397E-04   0.41730E-05
  0.36796E+01   0.17315E+01   0.24689E-03   0.15522E-03   0.26050E-04   0.31736E-05
  0.38003E+01   0.17883E+01   0.25881E-03   0.15669E-03   0.24741E-04   0.22767E-05
  0.39209E+01   0.18450E+01   0.27065E-03   0.15800E-03   0.23469E-04   0.14736E-05
  0.40416E+01   0.19018E+01   0.28241E-03   0.15917E-03   0.22229E-04   0.75078E-06
  0.41622E+01   0.19586E+01   0.29409E-03   0.16021E-03   0.21012E-04   0.89360E-07
  0.42828E+01   0.20154E+01   0.30567E-03   0.16420E-03   0.18266E-04   0.53449E-06
  0.44035E+01   0.20721E+01   0.30081E-03   0.41255E-03   0.95854E-04   0.37791E-05
  0.45241E+01   0.21289E+01   0.27823E-03   0.23001E-03   0.48043E-04   0.30253E-17
  0.87631E+00   0.48175E+00   0.00000E+00   0.88818E-16   0.00000E+00   0.28504E-03
  0.99315E+00   0.54599E+00   0.31172E-05   0.24770E-04   0.25197E-04   0.17804E-03
  0.11100E+01   0.61022E+00   0.89303E-05   0.41733E-04   0.36885E-04   0.15619E-03
  0.12268E+01   0.67446E+00   0.16897E-04   0.56342E-04   0.44773E-04   0.13380E-03
  0.13437E+01   0.73869E+00   0.26473E-04   0.69039E-04   0.49604E-04   0.11190E-03
  0.14605E+01   0.80292E+00   0.37237E-04   0.80154E-04   0.52185E-04   0.93010E-04
  0.15774E+01   0.86716E+00   0.48878E-04   0.89944E-04   0.53224E-04   0.76552E-04
  0.16942E+01   0.93139E+00   0.61169E-04   0.98613E-04   0.53255E-04   0.63115E-04
  0.18110E+01   0.99562E+00   0.73942E-04   0.10629E-03   0.52579E-04   0.54504E-04
  0.19279E+01   0.10599E+01   0.87074E-04   0.11310E-03   0.51450E-04   0.44732E-04
  0.20447E+01   0.11241E+01   0.10047E-03   0.11917E-03   0.50029E-04   0.39122E-04
  0.21616E+01   0.11883E+01   0.11405E-03   0.12459E-03   0.48437E-04   0.32679E-04
  0.22784E+01   0.12526E+01   0.12777E-03   0.12941E-03   0.46718E-04   0.27600E-04
  0.23952E+01   0.13168E+01   0.14158E-03   0.13374E-03   0.44954E-04   0.24246E-04
  0.25121E+01   0.13810E+01   0.15545E-03   0.13761E-03   0.43178E-04   0.20737E-04
  0.26289E+01   0.14453E+01   0.16934E-03   0.14109E-03   0.41402E-04   0.17497E-04
  0.27458E+01   0.15095E+01   0.18324E-03   0.14420E-03   0.39643E-04   0.14745E-04
  0.28626E+01   0.15737E+01   0.19713E-03   0.14700E-03   0.37914E-04   0.12444E-04
  0.29794E+01   0.16380E+01   0.21098E-03   0.14952E-03   0.36225E-04   0.10490E-04
  0.30963E+01   0.17022E+01   0.22480E-03   0.15177E-03   0.34579E-04   0.87864E-05
  0.32131E+01   0.17664E+01   0.23856E-03   0.15380E-03   0.32977E-04   0.72679E-05
  0.33300E+01   0.18307E+01   0.25226E-03   0.15561E-03   0.31421E-04   0.58973E-05
  0.34468E+01   0.18949E+01   0.26589E-03   0.15723E-03   0.29908E-04   0.46565E-05
  0.35636E+01   0.19591E+01   0.27944E-03   0.15867E-03   0.28438E-04   0.35370E-05
  0.36805E+01   0.20234E+01   0.29292E-03   0.15995E-03   0.27009E-04   0.25321E-05
  0.37973E+01   0.20876E+01   0.30630E-03   0.16108E-03   0.25617E-04   0.16322E-05
  0.39142E+01   0.21518E+01   0.31960E-03   0.16208E-03   0.24259E-04   0.82241E-06
  0.40310E+01   0.22161E+01   0.33279E-03   0.16295E-03   0.22927E-04   0.81427E-07
  0.41479E+01   0.22803E+01   0.34588E-03   0.16657E-03   0.19919E-04   0.61753E-06
  0.42647E+01   0.23445E+01   0.34037E-03   0.39861E-03   0.10741E-03   0.42697E-05
  0.43815E+01   0.24088E+01   0.31480E-03   0.22801E-03   0.37483E-04   0.00000E+00
  0.84433E+00   0.53583E+00   0.00000E+00   0.44409E-16   0.00000E+00   0.31236E-03
  0.95690E+00   0.60727E+00   0.37843E-05   0.28946E-04   0.28504E-04   0.19022E-03
  0.10695E+01   0.67871E+00   0.10408E-04   0.47087E-04   0.40019E-04   0.16632E-03
  0.11821E+01   0.75016E+00   0.19319E-04   0.62620E-04   0.47843E-04   0.14301E-03
  0.12946E+01   0.82160E+00   0.29966E-04   0.75925E-04   0.52715E-04   0.12019E-03
  0.14072E+01   0.89304E+00   0.41910E-04   0.87367E-04   0.55365E-04   0.10036E-03
  0.15198E+01   0.96449E+00   0.54822E-04   0.97275E-04   0.56457E-04   0.82894E-04
  0.16324E+01   0.10359E+01   0.68456E-04   0.10592E-03   0.56513E-04   0.68534E-04
  0.17449E+01   0.11074E+01   0.82627E-04   0.11348E-03   0.55828E-04   0.59367E-04
  0.18575E+01   0.11788E+01   0.97200E-04   0.12012E-03   0.54663E-04   0.48791E-04
  0.19701E+01   0.12503E+01   0.11207E-03   0.12597E-03   0.53185E-04   0.42763E-04
  0.20827E+01   0.13217E+01   0.12715E-03   0.13115E-03   0.51520E-04   0.35753E-04
  0.21953E+01   0.13931E+01   0.14239E-03   0.13573E-03   0.49717E-04   0.30221E-04
  0.23078E+01   0.14646E+01   0.15773E-03   0.13980E-03   0.47861E-04   0.26579E-04
  0.24204E+01   0.15360E+01   0.17313E-03   0.14342E-03   0.45989E-04   0.22747E-04
  0.25330E+01   0.16075E+01   0.18856E-03   0.14664E-03   0.44113E-04   0.19197E-04
  0.26456E+01   0.16789E+01   0.20401E-03   0.14951E-03   0.42253E-04   0.16180E-04
  0.27581E+01   0.17504E+01   0.21943E-03   0.15206E-03   0.40422E-04   0.13657E-04
  0.28707E+01   0.18218E+01   0.23483E-03   0.15434E-03   0.38631E-04   0.11512E-04
  0.29833E+01   0.18933E+01   0.25018E-03   0.15636E-03   0.36884E-04   0.96414E-05
  0.30959E+01   0.19647E+01   0.26547E-03   0.15816E-03   0.35183E-04   0.79730E-05
  0.32084E+01   0.20361E+01   0.28070E-03   0.15975E-03   0.33527E-04   0.64660E-05
  0.33210E+01   0.21076E+01   0.29585E-03   0.16115E-03   0.31917E-04   0.51010E-05
  0.34336E+01   0.21790E+01   0.31091E-03   0.16239E-03   0.30350E-04   0.38690E-05
  0.35462E+01   0.22505E+01   0.32588E-03   0.16347E-03   0.28825E-04   0.27631E-05
  0.36588E+01   0.23219E+01   0.34075E-03   0.16441E-03   0.27340E-04   0.17728E-05
  0.37713E+01   0.23934E+01   0.35553E-03   0.16521E-03   0.25890E-04   0.88180E-06
  0.38839E+01   0.24648E+01   0.37019E-03   0.16590E-03   0.24467E-04   0.66587E-07
  0.39965E+01   0.25362E+01   0.38473E-03   0.16912E-03   0.21249E-04   0.70243E-06
  0.41091E+01   0.26077E+01   0.37859E-03   0.38351E-03   0.11685E-03   0.47413E-05
  0.42216E+01   0.26791E+01   0.35014E-03   0.22590E-03   0.29141E-04   0.00000E+00
  0.80902E+00   0.58779E+00   0.00000E+00   0.22204E-16   0.00000E+00   0.33968E-03
  0.91689E+00   0.66616E+00   0.44214E-05   0.33503E-04   0.31262E-04   0.20330E-03
  0.10248E+01   0.74453E+00   0.11840E-04   0.52788E-04   0.42617E-04   0.17697E-03
  0.11326E+01   0.82290E+00   0.21680E-04   0.69184E-04   0.50311E-04   0.15226E-03
  0.12405E+01   0.90127E+00   0.33372E-04   0.83065E-04   0.55131E-04   0.12824E-03
  0.13484E+01   0.97964E+00   0.46461E-04   0.94827E-04   0.57771E-04   0.10735E-03
  0.14562E+01   0.10580E+01   0.60600E-04   0.10486E-03   0.58863E-04   0.88849E-04
  0.15641E+01   0.11364E+01   0.75526E-04   0.11350E-03   0.58914E-04   0.73586E-04
  0.16720E+01   0.12148E+01   0.91041E-04   0.12095E-03   0.58211E-04   0.63890E-04
  0.17798E+01   0.12931E+01   0.10700E-03   0.12742E-03   0.57015E-04   0.52554E-04
  0.18877E+01   0.13715E+01   0.12328E-03   0.13306E-03   0.55494E-04   0.46140E-04
  0.19956E+01   0.14499E+01   0.13980E-03   0.13800E-03   0.53777E-04   0.38600E-04
  0.21034E+01   0.15282E+01   0.15649E-03   0.14233E-03   0.51913E-04   0.32647E-04
  0.22113E+01   0.16066E+01   0.17329E-03   0.14613E-03   0.49992E-04   0.28742E-04
  0.23192E+01   0.16850E+01   0.19017E-03   0.14949E-03   0.48052E-04   0.24608E-04
  0.24271E+01   0.17634E+01   0.20708E-03   0.15246E-03   0.46105E-04   0.20770E-04
  0.25349E+01   0.18417E+01   0.22400E-03   0.15506E-03   0.44172E-04   0.17507E-04
  0.26428E+01   0.19201E+01   0.24091E-03   0.15736E-03   0.42269E-04   0.14776E-04
  0.27507E+01   0.19985E+01   0.25778E-03   0.15939E-03   0.40405E-04   0.12455E-04
  0.28585E+01   0.20768E+01   0.27460E-03   0.16117E-03   0.38584E-04   0.10429E-04
  0.29664E+01   0.21552E+01   0.29136E-03   0.16273E-03   0.36810E-04   0.86212E-05
  0.30743E+01   0.22336E+01   0.30805E-03   0.16410E-03   0.35083E-04   0.69873E-05
  0.31821E+01   0.23120E+01   0.32465E-03   0.16528E-03   0.33401E-04   0.55067E-05
  0.32900E+01   0.23903E+01   0.34116E-03   0.16630E-03   0.31764E-04   0.41701E-05
  0.33979E+01   0.24687E+01   0.35757E-03   0.16718E-03   0.30170E-04   0.29702E-05
  0.35057E+01   0.25471E+01   0.37387E-03   0.16791E-03   0.28616E-04   0.18959E-05
  0.36136E+01   0.26254E+01   0.39006E-03   0.16852E-03   0.27100E-04   0.92951E-06
  0.37215E+01   0.27038E+01   0.40613E-03   0.16901E-03   0.25611E-04   0.45480E-07
  0.38293E+01   0.27822E+01   0.42207E-03   0.17181E-03   0.22235E-04   0.78849E-06
  0.39372E+01   0.28606E+01   0.41532E-03   0.36747E-03   0.12415E-03   0.51922E-05
  0.40451E+01   0.29389E+01   0.38409E-03   0.22364E-03   0.22344E-04   0.00000E+00
  0.77051E+00   0.63742E+00   0.00000E+00   0.83267E-16   0.87245E-16   0.36646E-03
  0.87325E+00   0.72241E+00   0.50264E-05   0.38354E-04   0.33399E-04   0.21673E-03
  0.97598E+00   0.80740E+00   0.13215E-04   0.58774E-04   0.44576E-04   0.18784E-03
  0.10787E+01   0.89239E+00   0.23957E-04   0.75986E-04   0.52092E-04   0.16148E-03
  0.11815E+01   0.97738E+00   0.36661E-04   0.90405E-04   0.56794E-04   0.13608E-03
  0.12842E+01   0.10624E+01   0.50855E-04   0.10247E-03   0.59366E-04   0.11403E-03
  0.13869E+01   0.11474E+01   0.66172E-04   0.11262E-03   0.60417E-04   0.94474E-04
  0.14897E+01   0.12324E+01   0.82337E-04   0.12125E-03   0.60442E-04   0.78319E-04
  0.15924E+01   0.13173E+01   0.99138E-04   0.12859E-03   0.59715E-04   0.68109E-04
  0.16951E+01   0.14023E+01   0.11642E-03   0.13489E-03   0.58492E-04   0.56049E-04
  0.17979E+01   0.14873E+01   0.13405E-03   0.14032E-03   0.56941E-04   0.49273E-04
  0.19006E+01   0.15723E+01   0.15194E-03   0.14503E-03   0.55192E-04   0.41235E-04
  0.20033E+01   0.16573E+01   0.17002E-03   0.14910E-03   0.53291E-04   0.34889E-04
  0.21061E+01   0.17423E+01   0.18822E-03   0.15264E-03   0.51331E-04   0.30740E-04