 title = "traektorie"
 variables = "x", "y"
ZONE T="area1", I=10, F=POINT
