 TITLE = "velosity"
 VARIABLES = "X", "Y", "pressure"
ZONE T="area", I=122, J=21, F=POINT
      6.00000       0.00000      -5.30311 
      5.99863       0.05234      -5.29651 
      5.99452       0.10453      -5.27675 
      5.98769       0.15643      -5.24353 
      5.97815       0.20791      -5.19641 
      5.96593       0.25882      -5.13479 
      5.95106       0.30902      -5.05790 
      5.93358       0.35837      -4.96493 
      5.91355       0.40674      -4.85495 
      5.89101       0.45399      -4.72699 
      5.86603       0.50000      -4.58010 
      5.83867       0.54464      -4.41338 
      5.80902       0.58779      -4.22598 
      5.77715       0.62932      -4.01729 
      5.74314       0.66913      -3.78697 
      5.70711       0.70711      -3.53532 
      5.66913       0.74314      -3.26437 
      5.62932       0.77715      -2.97177 
      5.58779       0.80902      -2.65688 
      5.54464       0.83867      -2.31985 
      5.50000       0.86603      -1.96122 
      5.45399       0.89101      -1.58185 
      5.40674       0.91355      -1.18290 
      5.35837       0.93358      -0.76570 
      5.30902       0.95106      -0.33176 
      5.25882       0.96593       0.11731 
      5.20791       0.97815       0.58010 
      5.15643       0.98769       1.05593 
      5.10453       0.99452       1.54812 
      5.05234       0.99863       2.05169 
      5.00000       1.00000       2.50001 
      4.94766       0.99863       2.89598 
      4.89547       0.99452       3.34736 
      4.84357       0.98769       3.78764 
      4.79209       0.97815       4.21200 
      4.74118       0.96593       4.62388 
      4.69098       0.95106       5.02276 
      4.64163       0.93358       5.40734 
      4.59326       0.91355       5.77618 
      4.54601       0.89101       6.12788 
      4.50000       0.86603       6.46124 
      4.45536       0.83867       6.77523 
      4.41221       0.80902       7.06911 
      4.37068       0.77715       7.34246 
      4.33087       0.74314       7.59526 
      4.29289       0.70711       7.82824 
      4.25686       0.66913       8.04385 
      4.22285       0.62932       8.24017 
      4.19098       0.58779       8.41699 
      4.16133       0.54464       8.57473 
      4.13397       0.50000       8.71411 
      4.10899       0.45399       8.83601 
      4.08645       0.40674       8.94143 
      4.06642       0.35837       9.03138 
      4.04894       0.30902       9.10687 
      4.03407       0.25882       9.16888 
      4.02185       0.20791       9.21828 
      4.01231       0.15643       9.25585 
      4.00548       0.10453       9.28221 
      4.00137       0.05234       9.29784 
      4.00000       0.00000       9.30302 
      4.00137      -0.05234       9.29784 
      4.00548      -0.10453       9.28222 
      4.01231      -0.15643       9.25585 
      4.02185      -0.20791       9.21828 
      4.03407      -0.25882       9.16888 
      4.04894      -0.30902       9.10687 
      4.06642      -0.35837       9.03138 
      4.08645      -0.40674       8.94144 
      4.10899      -0.45399       8.83601 
      4.13397      -0.50000       8.71411 
      4.16133      -0.54464       8.57474 
      4.19098      -0.58779       8.41700 
      4.22285      -0.62932       8.24018 
      4.25686      -0.66913       8.04386 
      4.29289      -0.70711       7.82825 
      4.33087      -0.74314       7.59527 
      4.37068      -0.77715       7.34248 
      4.41221      -0.80902       7.06912 
      4.45536      -0.83867       6.77524 
      4.50000      -0.86603       6.46125 
      4.54601      -0.89101       6.12789 
      4.59326      -0.91355       5.77619 
      4.64163      -0.93358       5.40736 
      4.69098      -0.95106       5.02277 
      4.74118      -0.96593       4.62389 
      4.79209      -0.97815       4.21202 
      4.84357      -0.98769       3.78766 
      4.89547      -0.99452       3.34738 
      4.94766      -0.99863       2.89600 
      5.00000      -1.00000       2.50002 
      5.05234      -0.99863       2.05171 
      5.10453      -0.99452       1.54814 
      5.15643      -0.98769       1.05595 
      5.20791      -0.97815       0.58011 
      5.25882      -0.96593       0.11733 
      5.30902      -0.95106      -0.33175 
      5.35837      -0.93358      -0.76568 
      5.40674      -0.91355      -1.18288 
      5.45399      -0.89101      -1.58184 
      5.50000      -0.86603      -1.96121 
      5.54464      -0.83867      -2.31984 
      5.58779      -0.80902      -2.65686 
      5.62932      -0.77715      -2.97175 
      5.66913      -0.74314      -3.26436 
      5.70711      -0.70711      -3.53531 
      5.74314      -0.66913      -3.78695 
      5.77715      -0.62932      -4.01728 
      5.80902      -0.58779      -4.22597 
      5.83867      -0.54464      -4.41336 
      5.86603      -0.50000      -4.58009 
      5.89101      -0.45399      -4.72697 
      5.91355      -0.40674      -4.85494 
      5.93358      -0.35837      -4.96492 
      5.95106      -0.30902      -5.05789 
      5.96593      -0.25882      -5.13477 
      5.97815      -0.20791      -5.19640 
      5.98769      -0.15643      -5.24352 
      5.99452      -0.10453      -5.27674 
      5.99863      -0.05234      -5.29650 
      6.00000       0.00000      -5.30310 
      6.00000       0.00000      -5.30216 
      6.20000       0.00000      -4.19371 
      6.19870       0.06282      -4.18533 
      6.19480       0.12558      -4.16020 
      6.18830       0.18821      -4.11814 
      6.17924       0.25066      -4.05888 
      6.16763       0.31287      -3.98203 
      6.15350       0.37480      -3.88718 
      6.13690       0.43642      -3.77384 
      6.11787       0.49771      -3.64155 
      6.09646       0.55867      -3.48984 
      6.07272       0.61934      -3.31834 
      6.04674       0.67976      -3.12678 
      6.01857       0.74003      -2.91504 
      5.98829       0.80030      -2.68321 
      5.95599       0.86078      -2.43157 
      5.92175       0.92175      -2.16048 
      5.86078       0.95599      -1.99146 
      5.80030       0.98829      -1.79587 
      5.74003       1.01857      -1.57502 
      5.67976       1.04674      -1.33006 
      5.61934       1.07272      -1.06219 
      5.55867       1.09646      -0.77276 
      5.49771       1.11787      -0.46328 
      5.43642       1.13690      -0.13541 
      5.37480       1.15350       0.20898 
      5.31287       1.16763       0.56773 
      5.25066       1.17924       0.93828 
      5.18821       1.18830       1.31766 
      5.12558       1.19480       1.70351 
      5.06282       1.19870       2.09704 
      5.00000       1.20000       2.50001 
      4.93718       1.19870       2.84015 
      4.87442       1.19480       3.17093 
      4.81179       1.18830       3.49414 
      4.74934       1.17924       3.81107 
      4.68713       1.16763       4.11942 
      4.62520       1.15350       4.41624 
      4.56358       1.13690       4.69901 
      4.50229       1.11787       4.96559 
      4.44133       1.09646       5.21410 
      4.38066       1.07272       5.44287 
      4.32024       1.04674       5.65031 
      4.25997       1.01857       5.83501 
      4.19970       0.98829       5.99559 
      4.13922       0.95599       6.13070 
      4.07825       0.92175       6.23875 
      4.04401       0.86078       6.47560 
      4.01171       0.80030       6.69494 
      3.98143       0.74003       6.89650 
      3.95326       0.67976       7.08007 
      3.92728       0.61934       7.24564 
      3.90354       0.55867       7.39341 
      3.88213       0.49771       7.52371 
      3.86310       0.43642       7.63697 
      3.84650       0.37480       7.73370 
      3.83237       0.31287       7.81443 
      3.82076       0.25066       7.87965 
      3.81170       0.18821       7.92985 
      3.80520       0.12558       7.96541 
      3.80130       0.06282       7.98662 
      3.80000       0.00000       7.99367 
      3.80130      -0.06282       7.98662 
      3.80520      -0.12558       7.96541 
      3.81170      -0.18821       7.92985 
      3.82076      -0.25066       7.87966 
      3.83237      -0.31287       7.81443 
      3.84650      -0.37480       7.73370 
      3.86310      -0.43642       7.63697 
      3.88213      -0.49771       7.52371 
      3.90354      -0.55867       7.39342 
      3.92728      -0.61934       7.24565 
      3.95326      -0.67976       7.08008 
      3.98143      -0.74003       6.89651 
      4.01171      -0.80030       6.69495 
      4.04401      -0.86078       6.47561 
      4.07825      -0.92175       6.23876 
      4.13922      -0.95599       6.13072 
      4.19970      -0.98829       5.99560 
      4.25997      -1.01857       5.83502 
      4.32024      -1.04674       5.65033 
      4.38066      -1.07272       5.44288 
      4.44133      -1.09646       5.21412 
      4.50229      -1.11787       4.96560 
      4.56358      -1.13690       4.69902 
      4.62520      -1.15350       4.41625 
      4.68713      -1.16763       4.11944 
      4.74934      -1.17924       3.81109 
      4.81179      -1.18830       3.49416 
      4.87442      -1.19480       3.17094 
      4.93718      -1.19870       2.84017 
      5.00000      -1.20000       2.50002 
      5.06282      -1.19870       2.09706 
      5.12558      -1.19480       1.70352 
      5.18821      -1.18830       1.31768 
      5.25066      -1.17924       0.93830 
      5.31287      -1.16763       0.56774 
      5.37480      -1.15350       0.20899 
      5.43642      -1.13690      -0.13539 
      5.49771      -1.11787      -0.46326 
      5.55867      -1.09646      -0.77275 
      5.61934      -1.07272      -1.06217 
      5.67976      -1.04674      -1.33004 
      5.74003      -1.01857      -1.57501 
      5.80030      -0.98829      -1.79586 
      5.86078      -0.95599      -1.99145 
      5.92175      -0.92175      -2.16047 
      5.95599      -0.86078      -2.43155 
      5.98829      -0.80030      -2.68320 
      6.01857      -0.74003      -2.91503 
      6.04674      -0.67976      -3.12677 
      6.07272      -0.61934      -3.31833 
      6.09646      -0.55867      -3.48983 
      6.11787      -0.49771      -3.64154 
      6.13690      -0.43642      -3.77383 
      6.15350      -0.37480      -3.88717 
      6.16763      -0.31287      -3.98202 
      6.17924      -0.25066      -4.05886 
      6.18830      -0.18821      -4.11813 
      6.19480      -0.12558      -4.16019 
      6.19870      -0.06282      -4.18532 
      6.20000       0.00000      -4.19370 
      6.20000       0.00000      -4.19259 
      6.40000       0.00000      -3.38032 
      6.39877       0.07331      -3.37144 
      6.39507       0.14663      -3.34477 
      6.38892       0.21998      -3.30025 
      6.38033       0.29340      -3.23775 
      6.36933       0.36691      -3.15713 
      6.35595       0.44058      -3.05823 
      6.34022       0.51446      -2.94093 
      6.32219       0.58868      -2.80514 
      6.30191       0.66335      -2.65084 
      6.27942       0.73868      -2.47816 
      6.25480       0.81488      -2.28735 
      6.22812       0.89228      -2.07884 
      6.19943       0.97128      -1.85326 
      6.16883       1.05242      -1.61142 
      6.13640       1.13640      -1.35424 
      6.05242       1.16883      -1.23239 
      5.97128       1.19943      -1.08475 
      5.89228       1.22812      -0.91276 
      5.81488       1.25480      -0.71771 
      5.73868       1.27942      -0.50091 
      5.66335       1.30191      -0.26373 
      5.58868       1.32219      -0.00769 
      5.51446       1.34022       0.26555 
      5.44058       1.35595       0.55416 
      5.36691       1.36933       0.85614 
      5.29340       1.38033       1.16935 
      5.21998       1.38892       1.49169 
      5.14663       1.39507       1.82154 
      5.07331       1.39877       2.15813 
      5.00000       1.40000       2.50001 
      4.92669       1.39877       2.76857 
      4.85337       1.39507       3.03185 
      4.78002       1.38892       3.28834 
      4.70660       1.38033       3.53726 
      4.63309       1.36933       3.77696 
      4.55942       1.35595       4.00528 
      4.48554       1.34022       4.22000 
      4.41132       1.32219       4.41903 
      4.33665       1.30191       4.60039 
      4.26132       1.27942       4.76225 
      4.18512       1.25480       4.90285 
      4.10772       1.22812       5.02050 
      4.02872       1.19943       5.11349 
      3.94758       1.16883       5.17999 
      3.86360       1.13640       5.21786 
      3.83117       1.05242       5.44261 
      3.80057       0.97128       5.65385 
      3.77188       0.89228       5.85075 
      3.74520       0.81488       6.03257 
      3.72058       0.73868       6.19877 
      3.69809       0.66335       6.34897 
      3.67781       0.58868       6.48297 
      3.65978       0.51446       6.60074 
      3.64405       0.44058       6.70231 
      3.63067       0.36691       6.78782 
      3.61967       0.29340       6.85744 
      3.61108       0.21998       6.91135 
      3.60493       0.14663       6.94972 
      3.60123       0.07331       6.97268 
      3.60000       0.00000       6.98033 
      3.60123      -0.07331       6.97268 
      3.60493      -0.14663       6.94972 
      3.61108      -0.21998       6.91136 
      3.61967      -0.29340       6.85745 
      3.63067      -0.36691       6.78783 
      3.64405      -0.44058       6.70232 
      3.65978      -0.51446       6.60074 
      3.67781      -0.58868       6.48298 
      3.69809      -0.66335       6.34897 
      3.72058      -0.73868       6.19877 
      3.74520      -0.81488       6.03258 
      3.77188      -0.89228       5.85075 
      3.80057      -0.97128       5.65386 
      3.83117      -1.05242       5.44262 
      3.86360      -1.13640       5.21787 
      3.94758      -1.16883       5.18000 
      4.02872      -1.19943       5.11350 
      4.10772      -1.22812       5.02051 
      4.18512      -1.25480       4.90286 
      4.26132      -1.27942       4.76226 
      4.33665      -1.30191       4.60040 
      4.41132      -1.32219       4.41904 
      4.48554      -1.34022       4.22002 
      4.55942      -1.35595       4.00529 
      4.63309      -1.36933       3.77697 
      4.70660      -1.38033       3.53727 
      4.78002      -1.38892       3.28836 
      4.85337      -1.39507       3.03186 
      4.92669      -1.39877       2.76859 
      5.00000      -1.40000       2.50002 
      5.07331      -1.39877       2.15815 
      5.14663      -1.39507       1.82155 
      5.21998      -1.38892       1.49170 
      5.29340      -1.38033       1.16937 
      5.36691      -1.36933       0.85616 
      5.44058      -1.35595       0.55418 
      5.51446      -1.34022       0.26556 
      5.58868      -1.32219      -0.00768 
      5.66335      -1.30191      -0.26371 
      5.73868      -1.27942      -0.50089 
      5.81488      -1.25480      -0.71770 
      5.89228      -1.22812      -0.91274 
      5.97128      -1.19943      -1.08473 
      6.05242      -1.16883      -1.23237 
      6.13640      -1.13640      -1.35422 
      6.16883      -1.05242      -1.61141 
      6.19943      -0.97128      -1.85324 
      6.22812      -0.89228      -2.07882 
      6.25480      -0.81488      -2.28734 
      6.27942      -0.73868      -2.47815 
      6.30191      -0.66335      -2.65083 
      6.32219      -0.58868      -2.80512 
      6.34022      -0.51446      -2.94092 
      6.35595      -0.44058      -3.05822 
      6.36933      -0.36691      -3.15712 
      6.38033      -0.29340      -3.23774 
      6.38892      -0.21998      -3.30024 
      6.39507      -0.14663      -3.34476 
      6.39877      -0.07331      -3.37143 
      6.40000       0.00000      -3.38031 
      6.40000       0.00000      -3.37899 
      6.60000       0.00000      -2.76532 
      6.59884       0.08379      -2.75648 
      6.59534       0.16768      -2.72993 
      6.58954       0.25176      -2.68567 
      6.58143       0.33614      -2.62370 
      6.57104       0.42096      -2.54403 
      6.55840       0.50635      -2.44674 
      6.54354       0.59251      -2.33191 
      6.52651       0.67965      -2.19975 
      6.50736       0.76804      -2.05056 
      6.48612       0.85801      -1.88476 
      6.46287       0.95000      -1.70296 
      6.43766       1.04452      -1.50591 
      6.41057       1.14226      -1.29458 
      6.38167       1.24406      -1.07012 
      6.35104       1.35104      -0.83384 
      6.24406       1.38167      -0.73623 
      6.14226       1.41057      -0.61500 
      6.04452       1.43766      -0.47133 
      5.95000       1.46287      -0.30636 
      5.85801       1.48612      -0.12129 
      5.76804       1.50736       0.08261 
      5.67965       1.52651       0.30394 
      5.59251       1.54354       0.54116 
      5.50635       1.55840       0.79262 
      5.42096       1.57104       1.05655 
      5.33614       1.58143       1.33109 
      5.25176       1.58954       1.61443 
      5.16768       1.59534       1.90490 
      5.08379       1.59884       2.20094 
      5.00000       1.60000       2.50001 
      4.91621       1.59884       2.71528 
      4.83232       1.59534       2.92743 
      4.74824       1.58954       3.13382 
      4.66386       1.58143       3.33278 
      4.57904       1.57104       3.52250 
      4.49365       1.55840       3.70104 
      4.40749       1.54354       3.86634 
      4.32035       1.52651       4.01643 
      4.23196       1.50736       4.14937 
      4.14199       1.48612       4.26329 
      4.05000       1.46287       4.35638 
      3.95548       1.43766       4.42682 
      3.85774       1.41057       4.47276 
      3.75594       1.38167       4.49218 
      3.64896       1.35104       4.48282 
      3.61833       1.24406       4.68846 
      3.58943       1.14226       4.88403 
      3.56234       1.04452       5.06827 
      3.53713       0.95000       5.24011 
      3.51388       0.85801       5.39867 
      3.49264       0.76804       5.54323 
      3.47349       0.67965       5.67327 
      3.45646       0.59251       5.78840 
      3.44160       0.50635       5.88837 
      3.42896       0.42096       5.97303 
      3.41857       0.33614       6.04231 
      3.41046       0.25176       6.09617 
      3.40466       0.16768       6.13462 
      3.40116       0.08379       6.15769 
      3.40000       0.00000       6.16537 
      3.40116      -0.08379       6.15769 
      3.40466      -0.16768       6.13463 
      3.41046      -0.25176       6.09617 
      3.41857      -0.33614       6.04231 
      3.42896      -0.42096       5.97304 
      3.44160      -0.50635       5.88838 
      3.45646      -0.59251       5.78841 
      3.47349      -0.67965       5.67328 
      3.49264      -0.76804       5.54324 
      3.51388      -0.85801       5.39868 
      3.53713      -0.95000       5.24012 
      3.56234      -1.04452       5.06828 
      3.58943      -1.14226       4.88404 
      3.61833      -1.24406       4.68848 
      3.64896      -1.35104       4.48283 
      3.75594      -1.38167       4.49220 
      3.85774      -1.41057       4.47277 
      3.95548      -1.43766       4.42684 
      4.05000      -1.46287       4.35639 
      4.14199      -1.48612       4.26330 
      4.23196      -1.50736       4.14938 
      4.32035      -1.52651       4.01644 
      4.40749      -1.54354       3.86636 
      4.49365      -1.55840       3.70105 
      4.57904      -1.57104       3.52252 
      4.66386      -1.58143       3.33279 
      4.74824      -1.58954       3.13384 
      4.83232      -1.59534       2.92744 
      4.91621      -1.59884       2.71529 
      5.00000      -1.60000       2.50002 
      5.08379      -1.59884       2.20096 
      5.16768      -1.59534       1.90492 
      5.25176      -1.58954       1.61445 
      5.33614      -1.58143       1.33111 
      5.42096      -1.57104       1.05657 
      5.50635      -1.55840       0.79264 
      5.59251      -1.54354       0.54117 
      5.67965      -1.52651       0.30395 
      5.76804      -1.50736       0.08263 
      5.85801      -1.48612      -0.12127 
      5.95000      -1.46287      -0.30634 
      6.04452      -1.43766      -0.47132 
      6.14226      -1.41057      -0.61499 
      6.24406      -1.38167      -0.73621 
      6.35104      -1.35104      -0.83383 
      6.38167      -1.24406      -1.07010 
      6.41057      -1.14226      -1.29457 
      6.43766      -1.04452      -1.50590 
      6.46287      -0.95000      -1.70294 
      6.48612      -0.85801      -1.88475 
      6.50736      -0.76804      -2.05055 
      6.52651      -0.67965      -2.19974 
      6.54354      -0.59251      -2.33190 
      6.55840      -0.50635      -2.44672 
      6.57104      -0.42096      -2.54402 
      6.58143      -0.33614      -2.62369 
      6.58954      -0.25176      -2.68566 
      6.59534      -0.16768      -2.72992 
      6.59884      -0.08379      -2.75647 
      6.60000       0.00000      -2.76531 
      6.60000       0.00000      -2.76379 
      6.80000       0.00000      -2.28808 
      6.79890       0.09428      -2.27952 
      6.79562       0.18873      -2.25382 
      6.79015       0.28353      -2.21103 
      6.78252       0.37889      -2.15122 
      6.77274       0.47500      -2.07455 
      6.76085       0.57213      -1.98120 
      6.74686       0.67056      -1.87145 
      6.73084       0.77062      -1.74568 
      6.71281       0.87272      -1.60439 
      6.69282       0.97735      -1.44822 
      6.67094       1.08512      -1.27796 
      6.64721       1.19677      -1.09459 
      6.62172       1.31324      -0.89927 
      6.59452       1.43571      -0.69335 
      6.56569       1.56569      -0.47838 
      6.43571       1.59452      -0.39367 
      6.31324       1.62172      -0.28771 
      6.19677       1.64721      -0.16137 
      6.08512       1.67094      -0.01557 
      5.97735       1.69282       0.14865 
      5.87272       1.71281       0.33015 
      5.77062       1.73084       0.52768 
      5.67056       1.74686       0.73986 
      5.57213       1.76085       0.96521 
      5.47500       1.77274       1.20212 
      5.37889       1.78252       1.44893 
      5.28353       1.79015       1.70394 
      5.18873       1.79562       1.96545 
      5.09428       1.79890       2.23172 
      5.00000       1.80000       2.50001 
      4.90572       1.79890       2.67401 
      4.81127       1.79562       2.84583 
      4.71647       1.79015       3.01254 
      4.62111       1.78252       3.17219 
      4.52500       1.77274       3.32288 
      4.42787       1.76085       3.46267 
      4.32944       1.74686       3.58959 
      4.22938       1.73084       3.70172 
      4.12728       1.71281       3.79715 
      4.02265       1.69282       3.87402 
      3.91488       1.67094       3.93047 
      3.80323       1.64721       3.96461 
      3.68676       1.62172       3.97449 
      3.56429       1.59452       3.95798 
      3.43431       1.56569       3.91271 
      3.40548       1.43571       4.09885 
      3.37828       1.31324       4.27758 
      3.35279       1.19677       4.44740 
      3.32906       1.08512       4.60705 
      3.30718       0.97735       4.75542 
      3.28719       0.87272       4.89161 
      3.26916       0.77062       5.01487 
      3.25314       0.67056       5.12462 
      3.23915       0.57213       5.22039 
      3.22726       0.47500       5.30185 
      3.21748       0.37889       5.36875 
      3.20985       0.28353       5.42092 
      3.20438       0.18873       5.45826 
      3.20110       0.09428       5.48068 
      3.20000       0.00000       5.48816 
      3.20110      -0.09428       5.48068 
      3.20438      -0.18873       5.45826 
      3.20985      -0.28353       5.42093 
      3.21748      -0.37889       5.36875 
      3.22726      -0.47500       5.30185 
      3.23915      -0.57213       5.22039 
      3.25314      -0.67056       5.12462 
      3.26916      -0.77062       5.01488 
      3.28719      -0.87272       4.89162 
      3.30718      -0.97735       4.75543 
      3.32906      -1.08512       4.60706 
      3.35279      -1.19677       4.44741 
      3.37828      -1.31324       4.27759 
      3.40548      -1.43571       4.09886 
      3.43431      -1.56569       3.91272 
      3.56429      -1.59452       3.95799 
      3.68676      -1.62172       3.97450 
      3.80323      -1.64721       3.96463 
      3.91488      -1.67094       3.93048 
      4.02265      -1.69282       3.87403 
      4.12728      -1.71281       3.79716 
      4.22938      -1.73084       3.70173 
      4.32944      -1.74686       3.58960 
      4.42787      -1.76085       3.46268 
      4.52500      -1.77274       3.32290 
      4.62111      -1.78252       3.17221 
      4.71647      -1.79015       3.01256 
      4.81127      -1.79562       2.84585 
      4.90572      -1.79890       2.67403 
      5.00000      -1.80000       2.50002 
      5.09428      -1.79890       2.23174 
      5.18873      -1.79562       1.96547 
      5.28353      -1.79015       1.70396 
      5.37889      -1.78252       1.44895 
      5.47500      -1.77274       1.20214 
      5.57213      -1.76085       0.96523 
      5.67056      -1.74686       0.73988 
      5.77062      -1.73084       0.52769 
      5.87272      -1.71281       0.33016 
      5.97735      -1.69282       0.14866 
      6.08512      -1.67094      -0.01555 
      6.19677      -1.64721      -0.16135 
      6.31324      -1.62172      -0.28770 
      6.43571      -1.59452      -0.39366 
      6.56569      -1.56569      -0.47836 
      6.59452      -1.43571      -0.69333 
      6.62172      -1.31324      -0.89926 
      6.64721      -1.19677      -1.09458 
      6.67094      -1.08512      -1.27795 
      6.69282      -0.97735      -1.44820 
      6.71281      -0.87272      -1.60438 
      6.73084      -0.77062      -1.74567 
      6.74686      -0.67056      -1.87144 
      6.76085      -0.57213      -1.98118 
      6.77274      -0.47500      -2.07454 
      6.78252      -0.37889      -2.15121 
      6.79015      -0.28353      -2.21102 
      6.79562      -0.18873      -2.25381 
      6.79890      -0.09428      -2.27951 
      6.80000       0.00000      -2.28807 
      6.80000       0.00000      -2.28638 
      7.00000       0.00000      -1.90967 
      6.99897       0.10476      -1.90150 
      6.99589       0.20978      -1.87697 
      6.99077       0.31531      -1.83617 
      6.98361       0.42163      -1.77924 
      6.97444       0.52905      -1.70640 
      6.96329       0.63791      -1.61794 
      6.95019       0.74861      -1.51426 
      6.93516       0.86159      -1.39585 
      6.91825       0.97740      -1.26336 
      6.89952       1.09669      -1.11754 
      6.87900       1.22024      -0.95934 
      6.85676       1.34902      -0.78985 
      6.83286       1.48422      -0.61034 
      6.80736       1.62735      -0.42231 
      6.78033       1.78033      -0.22743 
      6.62735       1.80736      -0.14937 
      6.48422       1.83286      -0.05225 
      6.34902       1.85676       0.06330 
      6.22024       1.87900       0.19656 
      6.09669       1.89952       0.34665 
      5.97740       1.91825       0.51260 
      5.86159       1.93516       0.69329 
      5.74861       1.95019       0.88749 
      5.63791       1.96329       1.09385 
      5.52905       1.97444       1.31091 
      5.42163       1.98361       1.53713 
      5.31531       1.99077       1.77092 
      5.20978       1.99589       2.01060 
      5.10476       1.99897       2.25435 
      5.00000       2.00000       2.50001 
      4.89524       1.99897       2.64090 
      4.79022       1.99589       2.77964 
      4.68469       1.99077       2.91378 
      4.57837       1.98361       3.04125 
      4.47095       1.97444       3.16005 
      4.36209       1.96329       3.26825 
      4.25139       1.95019       3.36392 
      4.13841       1.93516       3.44513 
      4.02260       1.91825       3.51001 
      3.90331       1.89952       3.55667 
      3.77976       1.87900       3.58322 
      3.65098       1.85676       3.58770 
      3.51578       1.83286       3.56805 
      3.37265       1.80736       3.52203 
      3.21967       1.78033       3.44712 
      3.19264       1.62735       3.61497 
      3.16714       1.48422       3.77751 
      3.14324       1.34902       3.93311 
      3.12100       1.22024       4.08036 
      3.10048       1.09669       4.21805 
      3.08175       0.97740       4.34514 
      3.06484       0.86159       4.46073 
      3.04981       0.74861       4.56411 
      3.03671       0.63791       4.65469 
      3.02556       0.52905       4.73200 
      3.01639       0.42163       4.79568 
      3.00923       0.31531       4.84546 
      3.00411       0.20978       4.88114 
      3.00103       0.10476       4.90260 
      3.00000       0.00000       4.90977 
      3.00103      -0.10476       4.90260 
      3.00411      -0.20978       4.88114 
      3.00923      -0.31531       4.84546 
      3.01639      -0.42163       4.79568 
      3.02556      -0.52905       4.73200 
      3.03671      -0.63791       4.65469 
      3.04981      -0.74861       4.56411 
      3.06484      -0.86159       4.46074 
      3.08175      -0.97740       4.34514 
      3.10048      -1.09669       4.21806 
      3.12100      -1.22024       4.08037 
      3.14324      -1.34902       3.93312 
      3.16714      -1.48422       3.77752 
      3.19264      -1.62735       3.61498 
      3.21967      -1.78033       3.44713 
      3.37265      -1.80736       3.52204 
      3.51578      -1.83286       3.56806 
      3.65098      -1.85676       3.58771 
      3.77976      -1.87900       3.58323 
      3.90331      -1.89952       3.55669 
      4.02260      -1.91825       3.51003 
      4.13841      -1.93516       3.44515 
      4.25139      -1.95019       3.36393 
      4.36209      -1.96329       3.26827 