 TITLE = "traektorie"
 VARIABLES = "X", "Y"
ZONE T="area1", I=22, F=POINT
 -3.00000   0.09091
 -2.90000   0.09090
 -2.80000   0.09094
 -2.70000   0.09111
 -2.60000   0.09147
 -2.50000   0.09207
 -2.40001   0.09297
 -2.30001   0.09422
 -2.20003   0.09590
 -2.10005   0.09809
 -2.00009   0.10087
 -1.90015   0.10437
 -1.80025   0.10878
 -1.70040   0.11429
 -1.60065   0.12125
 -1.50104   0.13008
 -1.40169   0.14146
 -1.30282   0.15637
 -1.20485   0.17635
 -1.10868   0.20364
 -1.01602   0.24106
 -0.92812   0.28866
ZONE T="area2", I=25, F=POINT
 -3.00000   0.18182
 -2.90000   0.18183
 -2.80000   0.18196
 -2.70000   0.18234
 -2.60000   0.18309
 -2.50001   0.18430
 -2.40003   0.18608
 -2.30006   0.18855
 -2.20011   0.19182
 -2.10020   0.19606
 -2.00035   0.20143
 -1.90057   0.20816
 -1.80093   0.21654
 -1.70147   0.22694
 -1.60231   0.23987
 -1.50362   0.25597
 -1.40568   0.27609
 -1.30893   0.30134
 -1.21410   0.33298
 -1.12217   0.37227
 -1.03435   0.42001
 -0.95153   0.47598
 -0.87373   0.53877
 -0.79971   0.60599
 -0.72783   0.67549
ZONE T="area3", I=64, F=POINT
 -3.00000   0.27273
 -2.90000   0.27275
 -2.80000   0.27296
 -2.70000   0.27353
 -2.60001   0.27461
 -2.50002   0.27635
 -2.40006   0.27890
 -2.30012   0.28241
 -2.20023   0.28706
 -2.10041   0.29304
 -2.00069   0.30058
 -1.90114   0.30996
 -1.80181   0.32153
 -1.70282   0.33572
 -1.60434   0.35303
 -1.50659   0.37409
 -1.40991   0.39960
 -1.31475   0.43028
 -1.22166   0.46678
 -1.13125   0.50945
 -1.04395   0.55820
 -0.95991   0.61237
 -0.87883   0.67088
 -0.79997   0.73237
 -0.72229   0.79534
 -0.64446   0.85813
 -0.56501   0.91884
 -0.48271   0.97562
 -0.39697   1.02705
 -0.30787   1.07239
 -0.21581   1.11139
 -0.12133   1.14412
 -0.02497   1.17080
  0.07280   1.19173
  0.17157   1.20726
  0.27101   1.21775
  0.37083   1.22359
  0.47081   1.22515
  0.57078   1.22279
  0.67060   1.21684
  0.77017   1.20765
  0.86943   1.19551
  0.96832   1.18071
  1.06683   1.16353
  1.16495   1.14421
  1.26267   1.12299
  1.36002   1.10011
  1.45701   1.07579
  1.55369   1.05023
  1.65009   1.02366
  1.74627   0.99627
  1.84227   0.96827
  1.93816   0.93988
  2.03398   0.91128
  2.12981   0.88269
  2.22569   0.85431
  2.32170   0.82633
  2.41788   0.79895
  2.51428   0.77236
  2.61094   0.74674
  2.70789   0.72225
  2.80517   0.69906
  2.90277   0.67731
  3.00072   0.65715
ZONE T="area4", I=64, F=POINT
 -3.00000   0.36364
 -2.90000   0.36368
 -2.80000   0.36395
 -2.70000   0.36466
 -2.60001   0.36601
 -2.50004   0.36817
 -2.40009   0.37134
 -2.30018   0.37569
 -2.20035   0.38142
 -2.10062   0.38876
 -2.00104   0.39796
 -1.90169   0.40932
 -1.80266   0.42318
 -1.70408   0.43994
 -1.60613   0.46004
 -1.50904   0.48397
 -1.41311   0.51218
 -1.31869   0.54507
 -1.22611   0.58284
 -1.13566   0.62546
 -1.04745   0.67255
 -0.96138   0.72345
 -0.87709   0.77726
 -0.79402   0.83293
 -0.71145   0.88934
 -0.62859   0.94531
 -0.54465   0.99966
 -0.45899   1.05124
 -0.37117   1.09905
 -0.28104   1.14235
 -0.18869   1.18068
 -0.09436   1.21384
  0.00162   1.24187
  0.09891   1.26492
  0.19721   1.28326
  0.29623   1.29718
  0.39574   1.30702
  0.49554   1.31310
  0.59551   1.31576
  0.69550   1.31529
  0.79544   1.31200
  0.89527   1.30615
  0.99493   1.29800
  1.09441   1.28777
  1.19367   1.27568
  1.29272   1.26194
  1.39156   1.24673
  1.49019   1.23025
  1.58863   1.21264
  1.68689   1.19410
  1.78501   1.17476
  1.88299   1.15480
  1.98088   1.13436
  2.07870   1.11360
  2.17649   1.09266
  2.27427   1.07170
  2.37207   1.05086
  2.46993   1.03029
  2.56788   1.01014
  2.66594   0.99055
  2.76414   0.97166
  2.86250   0.95362
  2.96103   0.93656
  3.05975   0.92058
ZONE T="area5", I=63, F=POINT
 -3.00000   0.45455
 -2.90000   0.45460
 -2.80000   0.45491
 -2.70000   0.45573
 -2.60002   0.45727
 -2.50005   0.45975
 -2.40011   0.46336
 -2.30024   0.46830
 -2.20045   0.47480
 -2.10079   0.48309
 -2.00133   0.49342
 -1.90214   0.50607
 -1.80332   0.52135
 -1.70500   0.53961
 -1.60736   0.56117
 -1.51059   0.58638
 -1.41493   0.61549
 -1.32061   0.64868
 -1.22781   0.68592
 -1.13665   0.72702
 -1.04712   0.77154
 -0.95904   0.81889
 -0.87211   0.86831
 -0.78589   0.91896
 -0.69987   0.96996
 -0.61353   1.02041
 -0.52637   1.06943
 -0.43797   1.11617
 -0.34804   1.15990
 -0.25645   1.20002
 -0.16321   1.23613
 -0.06843   1.26799
  0.02770   1.29553
  0.12494   1.31882
  0.22307   1.33802
  0.32188   1.35335
  0.42119   1.36507
  0.52083   1.37345
  0.62069   1.37877
  0.72065   1.38130
  0.82065   1.38130
  0.92062   1.37900
  1.02052   1.37463
  1.12033   1.36839
  1.22001   1.36048
  1.31957   1.35107
  1.41899   1.34034
  1.51828   1.32844
  1.61744   1.31552
  1.71648   1.30172
  1.81542   1.28717
  1.91427   1.27202
  2.01304   1.25638
  2.11175   1.24039
  2.21042   1.22417
  2.30908   1.20784
  2.40774   1.19153
  2.50643   1.17535
  2.60515   1.15944
  2.70394   1.14392
  2.80280   1.12890
  2.90176   1.11451
  3.00083   1.10088
ZONE T="area6", I=63, F=POINT
 -3.00000   0.54545
 -2.90000   0.54551
 -2.80000   0.54585
 -2.70000   0.54673
 -2.60002   0.54840
 -2.50006   0.55106
 -2.40013   0.55495
 -2.30027   0.56026
 -2.20052   0.56722
 -2.10091   0.57606
 -2.00151   0.58702
 -1.90241   0.60035
 -1.80370   0.61631
 -1.70550   0.63518
 -1.60795   0.65720
 -1.51123   0.68256
 -1.41549   0.71142
 -1.32088   0.74379
 -1.22750   0.77956
 -1.13538   0.81846
 -1.04446   0.86007
 -0.95456   0.90387
 -0.86543   0.94920
 -0.77673   0.99539
 -0.68810   1.04171
 -0.59917   1.08743
 -0.50958   1.13185
 -0.41905   1.17431
 -0.32737   1.21425
 -0.23444   1.25117
 -0.14025   1.28474
 -0.04486   1.31473
  0.05161   1.34105
  0.14900   1.36373
  0.24715   1.38285
  0.34590   1.39858
  0.44510   1.41113
  0.54464   1.42071
  0.64440   1.42756
  0.74430   1.43190
  0.84428   1.43395
  0.94428   1.43393
  1.04426   1.43204
  1.14419   1.42844
  1.24406   1.42333
  1.34385   1.41685
  1.44356   1.40916
  1.54317   1.40039
  1.64270   1.39068
  1.74214   1.38016
  1.84151   1.36893
  1.94081   1.35712
  2.04005   1.34484
  2.13925   1.33220
  2.23841   1.31930
  2.33756   1.30626
  2.43670   1.29318
  2.53585   1.28016
  2.63502   1.26732
  2.73423   1.25475
  2.83349   1.24258
  2.93280   1.23090
  3.03219   1.21983
ZONE T="area7", I=63, F=POINT
 -3.00000   0.63636
 -2.90000   0.63642
 -2.80000   0.63676
 -2.70001   0.63767
 -2.60002   0.63939
 -2.50006   0.64214
 -2.40014   0.64614
 -2.30029   0.65161
 -2.20055   0.65876
 -2.10096   0.66781
 -2.00159   0.67897
 -1.90250   0.69247
 -1.80380   0.70853
 -1.70559   0.72733
 -1.60799   0.74906
 -1.51111   0.77384
 -1.41507   0.80170
 -1.31997   0.83260
 -1.22585   0.86637
 -1.13270   0.90275
 -1.04045   0.94133
 -0.94894   0.98165
 -0.85796   1.02315
 -0.76726   1.06527
 -0.67656   1.10738
 -0.58559   1.14890
 -0.49409   1.18924
 -0.40185   1.22787
 -0.30873   1.26433
 -0.21465   1.29820
 -0.11959   1.32922
 -0.02358   1.35717
  0.07329   1.38198
  0.17092   1.40362
  0.26918   1.42217
  0.36795   1.43775
  0.46713   1.45052
  0.56661   1.46065
  0.66632   1.46833
  0.76617   1.47377
  0.86611   1.47714
  0.96610   1.47864
  1.06609   1.47843
  1.16608   1.47669
  1.26603   1.47355
  1.36593   1.46917
  1.46578   1.46368
  1.56557   1.45719
  1.66530   1.44984
  1.76497   1.44172
  1.86458   1.43295
  1.96415   1.42362
  2.06367   1.41385
  2.16315   1.40371
  2.26261   1.39332
  2.36205   1.38276
  2.46148   1.37212
  2.56092   1.36150
  2.66037   1.35100
  2.75983   1.34070
  2.85933   1.33071
  2.95887   1.32112
  3.05846   1.31202
ZONE T="area8", I=63, F=POINT
 -3.00000   0.72727
 -2.90000   0.72732
 -2.80000   0.72766
 -2.70000   0.72856
 -2.60002   0.73027
 -2.50006   0.73301
 -2.40014   0.73701
 -2.30029   0.74246
 -2.20054   0.74957
 -2.10095   0.75854
 -2.00156   0.76957
 -1.90245   0.78284
 -1.80369   0.79853
 -1.70537   0.81678
 -1.60759   0.83772
 -1.51044   0.86139
 -1.41399   0.88779
 -1.31830   0.91683
 -1.22339   0.94833
 -1.12924   0.98202
 -1.03576   1.01754
 -0.94284   1.05448
 -0.85029   1.09236
 -0.75793   1.13069
 -0.66554   1.16895
 -0.57291   1.20664
 -0.47986   1.24327
 -0.38623   1.27839
 -0.29192   1.31162
 -0.19685   1.34262
 -0.10101   1.37115
 -0.00442   1.39703
  0.09286   1.42019
  0.19075   1.44059
  0.28917   1.45830
  0.38802   1.47338
  0.48722   1.48599
  0.58669   1.49624
  0.68637   1.50432
  0.78618   1.51038
  0.88609   1.51459
  0.98606   1.51710
  1.08605   1.51807
  1.18605   1.51764
  1.28604   1.51594
  1.38600   1.51311
  1.48592   1.50925
  1.58581   1.50449
  1.68565   1.49892
  1.78545   1.49264
  1.88522   1.48575
  1.98494   1.47835
  2.08463   1.47051
  2.18430   1.46233
  2.28394   1.45389
  2.38357   1.44527
  2.48319   1.43655
  2.58281   1.42782
  2.68243   1.41916
  2.78207   1.41066
  2.88173   1.40241
  2.98141   1.39448
  3.08113   1.38690
ZONE T="area9", I=62, F=POINT
 -3.00000   0.81818
 -2.90000   0.81823
 -2.80000   0.81855
 -2.70000   0.81943
 -2.60002   0.82109
 -2.50005   0.82375
 -2.40013   0.82763
 -2.30027   0.83292
 -2.20051   0.83981
 -2.10089   0.84849
 -2.00146   0.85912
 -1.90228   0.87187
 -1.80341   0.88687
 -1.70493   0.90422
 -1.60691   0.92401
 -1.50942   0.94625
 -1.41250   0.97090
 -1.31621   0.99786
 -1.22053   1.02693
 -1.12544   1.05787
 -1.03086   1.09036
 -0.93670   1.12402
 -0.84282   1.15846
 -0.74906   1.19323
 -0.65526   1.22790
 -0.56127   1.26203
 -0.46693   1.29522
 -0.37215   1.32708
 -0.27682   1.35729
 -0.18090   1.38555
 -0.08437   1.41168
  0.01274   1.43550
  0.11041   1.45695
  0.20858   1.47600
  0.30718   1.49269
  0.40613   1.50707
  0.50539   1.51926
  0.60487   1.52936
  0.70454   1.53753
  0.80433   1.54389
  0.90422   1.54858
  1.00417   1.55175
  1.10415   1.55353
  1.20415   1.55404
  1.30415   1.55340
  1.40414   1.55172
  1.50410   1.54911
  1.60404   1.54566
  1.70395   1.54148
  1.80384   1.53664
  1.90369   1.53124
  2.00352   1.52535
  2.10332   1.51906
  2.20310   1.51243
  2.30286   1.50555
  2.40261   1.49849
  2.50235   1.49132
  2.60209   1.48412
  2.70184   1.47696
  2.80159   1.46991
  2.90135   1.46306
  3.00114   1.45649
ZONE T="area10", I=62, F=POINT
 -3.00000   0.90909
 -2.90000   0.90913
 -2.80000   0.90945
 -2.70000   0.91028
 -2.60002   0.91186
 -2.50005   0.91439
 -2.40012   0.91808
 -2.30025   0.92311
 -2.20046   0.92965
 -2.10080   0.93787
 -2.00131   0.94792
 -1.90203   0.95992
 -1.80303   0.97400
 -1.70436   0.99023
 -1.60607   1.00864
 -1.50822   1.02924
 -1.41084   1.05197
 -1.31395   1.07672
 -1.21755   1.10330
 -1.12160   1.13149
 -1.02606   1.16099
 -0.93082   1.19149
 -0.83579   1.22263
 -0.74085   1.25404
 -0.64587   1.28532
 -0.55073   1.31612
 -0.45533   1.34608
 -0.35956   1.37487
 -0.26338   1.40222
 -0.16673   1.42788
 -0.06960   1.45167
  0.02800   1.47346
  0.12603   1.49318
  0.22446   1.51081
  0.32324   1.52637
  0.42232   1.53990
  0.52165   1.55150
  0.62117   1.56125
  0.72084   1.56928
  0.82064   1.57570
  0.92051   1.58064
  1.02045   1.58420
  1.12042   1.58651
  1.22041   1.58767
  1.32041   1.58780
  1.42041   1.58699
  1.52040   1.58533
  1.62037   1.58290
  1.72032   1.57981
  1.82025   1.57611
  1.92016   1.57189
  2.02005   1.56722
  2.11992   1.56218
  2.21978   1.55682
  2.31962   1.55121
  2.41946   1.54542
  2.51928   1.53952
  2.61910   1.53357
  2.71893   1.52765
  2.81876   1.52180
  2.91860   1.51611
  3.01845   1.51065
