 title = "traektorie"
 variables = "x", "y", "t"
ZONE T="area2", I=212, F=POINT
   -0.50000E+01     0.10526E+00     0.00000E+00
   -0.49500E+01     0.10526E+00     0.50955E-01
   -0.49000E+01     0.10522E+00     0.10195E+00
   -0.48500E+01     0.10518E+00     0.15298E+00
   -0.48000E+01     0.10514E+00     0.20404E+00
   -0.47500E+01     0.10513E+00     0.25514E+00
   -0.47000E+01     0.10513E+00     0.30625E+00
   -0.46500E+01     0.10515E+00     0.35738E+00
   -0.46000E+01     0.10519E+00     0.40855E+00
   -0.45500E+01     0.10525E+00     0.45974E+00
   -0.45000E+01     0.10532E+00     0.51097E+00
   -0.44500E+01     0.10541E+00     0.56223E+00
   -0.44000E+01     0.10551E+00     0.61355E+00
   -0.43500E+01     0.10563E+00     0.66492E+00
   -0.43000E+01     0.10576E+00     0.71634E+00
   -0.42500E+01     0.10590E+00     0.76784E+00
   -0.42000E+01     0.10606E+00     0.81941E+00
   -0.41500E+01     0.10624E+00     0.87106E+00
   -0.41000E+01     0.10643E+00     0.92280E+00
   -0.40500E+01     0.10664E+00     0.97463E+00
   -0.40000E+01     0.10687E+00     0.10266E+01
   -0.39500E+01     0.10712E+00     0.10786E+01
   -0.39000E+01     0.10739E+00     0.11308E+01
   -0.38500E+01     0.10768E+00     0.11831E+01
   -0.38000E+01     0.10800E+00     0.12356E+01
   -0.37500E+01     0.10834E+00     0.12882E+01
   -0.37000E+01     0.10871E+00     0.13410E+01
   -0.36500E+01     0.10910E+00     0.13940E+01
   -0.36000E+01     0.10953E+00     0.14472E+01
   -0.35500E+01     0.11000E+00     0.15006E+01
   -0.35000E+01     0.11049E+00     0.15543E+01
   -0.34500E+01     0.11103E+00     0.16081E+01
   -0.34000E+01     0.11161E+00     0.16623E+01
   -0.33500E+01     0.11223E+00     0.17168E+01
   -0.33000E+01     0.11290E+00     0.17715E+01
   -0.32500E+01     0.11362E+00     0.18266E+01
   -0.32000E+01     0.11440E+00     0.18821E+01
   -0.31500E+01     0.11524E+00     0.19380E+01
   -0.31001E+01     0.11615E+00     0.19943E+01
   -0.30501E+01     0.11712E+00     0.20510E+01
   -0.30001E+01     0.11818E+00     0.21083E+01
   -0.29501E+01     0.11932E+00     0.21661E+01
   -0.29001E+01     0.12056E+00     0.22244E+01
   -0.28501E+01     0.12190E+00     0.22834E+01
   -0.28001E+01     0.12335E+00     0.23431E+01
   -0.27502E+01     0.12492E+00     0.24035E+01
   -0.27002E+01     0.12663E+00     0.24648E+01
   -0.26502E+01     0.12849E+00     0.25269E+01
   -0.26003E+01     0.13051E+00     0.25900E+01
   -0.25503E+01     0.13272E+00     0.26541E+01
   -0.25004E+01     0.13513E+00     0.27193E+01
   -0.24505E+01     0.13777E+00     0.27858E+01
   -0.24005E+01     0.14067E+00     0.28537E+01
   -0.23506E+01     0.14385E+00     0.29230E+01
   -0.23008E+01     0.14735E+00     0.29940E+01
   -0.22509E+01     0.15123E+00     0.30667E+01
   -0.22011E+01     0.15551E+00     0.31415E+01
   -0.21513E+01     0.16027E+00     0.32185E+01
   -0.21016E+01     0.16558E+00     0.32978E+01
   -0.20520E+01     0.17150E+00     0.33799E+01
   -0.20024E+01     0.17814E+00     0.34648E+01
   -0.19530E+01     0.18561E+00     0.35531E+01
   -0.19037E+01     0.19404E+00     0.36449E+01
   -0.18546E+01     0.20359E+00     0.37406E+01
   -0.18058E+01     0.21443E+00     0.38405E+01
   -0.17573E+01     0.22676E+00     0.39450E+01
   -0.17094E+01     0.24080E+00     0.40542E+01
   -0.16620E+01     0.25678E+00     0.41682E+01
   -0.16154E+01     0.27491E+00     0.42869E+01
   -0.15698E+01     0.29537E+00     0.44097E+01
   -0.15253E+01     0.31825E+00     0.45360E+01
   -0.14822E+01     0.34354E+00     0.46646E+01
   -0.14405E+01     0.37111E+00     0.47940E+01
   -0.14002E+01     0.40071E+00     0.49230E+01
   -0.13612E+01     0.43202E+00     0.50502E+01
   -0.13234E+01     0.46471E+00     0.51746E+01
   -0.12865E+01     0.49841E+00     0.52954E+01
   -0.12502E+01     0.53281E+00     0.54122E+01
   -0.12143E+01     0.56762E+00     0.55246E+01
   -0.11785E+01     0.60259E+00     0.56327E+01
   -0.11428E+01     0.63751E+00     0.57364E+01
   -0.11068E+01     0.67221E+00     0.58359E+01
   -0.10704E+01     0.70651E+00     0.59313E+01
   -0.10335E+01     0.74030E+00     0.60227E+01
   -0.99608E+00     0.77344E+00     0.61103E+01
   -0.95799E+00     0.80582E+00     0.61943E+01
   -0.91920E+00     0.83737E+00     0.62749E+01
   -0.87967E+00     0.86798E+00     0.63523E+01
   -0.83938E+00     0.89759E+00     0.64265E+01
   -0.79832E+00     0.92612E+00     0.64978E+01
   -0.75649E+00     0.95352E+00     0.65664E+01
   -0.71391E+00     0.97971E+00     0.66323E+01
   -0.67057E+00     0.10047E+01     0.66957E+01
   -0.62652E+00     0.10283E+01     0.67568E+01
   -0.58178E+00     0.10506E+01     0.68157E+01
   -0.53637E+00     0.10715E+01     0.68725E+01
   -0.49034E+00     0.10911E+01     0.69273E+01
   -0.44373E+00     0.11091E+01     0.69803E+01
   -0.39657E+00     0.11258E+01     0.70316E+01
   -0.34892E+00     0.11409E+01     0.70813E+01
   -0.30081E+00     0.11545E+01     0.71295E+01
   -0.25230E+00     0.11666E+01     0.71764E+01
   -0.20344E+00     0.11772E+01     0.72220E+01
   -0.15427E+00     0.11863E+01     0.72665E+01
   -0.10484E+00     0.11938E+01     0.73100E+01
   -0.55199E-01     0.11998E+01     0.73525E+01
   -0.54004E-02     0.12042E+01     0.73942E+01
    0.44511E-01     0.12072E+01     0.74352E+01
    0.94489E-01     0.12086E+01     0.74756E+01
    0.14449E+00     0.12085E+01     0.75154E+01
    0.19446E+00     0.12070E+01     0.75548E+01
    0.24437E+00     0.12040E+01     0.75938E+01
    0.29417E+00     0.11995E+01     0.76326E+01
    0.34382E+00     0.11936E+01     0.76712E+01
    0.39328E+00     0.11863E+01     0.77098E+01
    0.44252E+00     0.11777E+01     0.77484E+01
    0.49151E+00     0.11677E+01     0.77871E+01
    0.54021E+00     0.11563E+01     0.78260E+01
    0.58858E+00     0.11437E+01     0.78652E+01
    0.63661E+00     0.11298E+01     0.79048E+01
    0.68427E+00     0.11147E+01     0.79449E+01
    0.73153E+00     0.10984E+01     0.79855E+01
    0.77838E+00     0.10809E+01     0.80268E+01
    0.82479E+00     0.10623E+01     0.80688E+01
    0.87076E+00     0.10426E+01     0.81117E+01
    0.91627E+00     0.10219E+01     0.81555E+01
    0.96132E+00     0.10002E+01     0.82003E+01
    0.10059E+01     0.97762E+00     0.82463E+01
    0.10500E+01     0.95412E+00     0.82935E+01
    0.10937E+01     0.92980E+00     0.83420E+01
    0.11370E+01     0.90472E+00     0.83920E+01
    0.11798E+01     0.87896E+00     0.84435E+01
    0.12223E+01     0.85260E+00     0.84966E+01
    0.12645E+01     0.82571E+00     0.85514E+01
    0.13063E+01     0.79839E+00     0.86081E+01
    0.13480E+01     0.77074E+00     0.86666E+01
    0.13895E+01     0.74288E+00     0.87271E+01
    0.14310E+01     0.71491E+00     0.87897E+01
    0.14724E+01     0.68697E+00     0.88543E+01
    0.15140E+01     0.65919E+00     0.89210E+01
    0.15558E+01     0.63173E+00     0.89897E+01
    0.15979E+01     0.60473E+00     0.90604E+01
    0.16403E+01     0.57835E+00     0.91330E+01
    0.16833E+01     0.55274E+00     0.92073E+01
    0.17268E+01     0.52805E+00     0.92830E+01
    0.17708E+01     0.50442E+00     0.93600E+01
    0.18155E+01     0.48196E+00     0.94379E+01
    0.18608E+01     0.46076E+00     0.95164E+01
    0.19067E+01     0.44088E+00     0.95951E+01
    0.19531E+01     0.42234E+00     0.96738E+01
    0.20000E+01     0.40514E+00     0.97522E+01
    0.20474E+01     0.38926E+00     0.98299E+01
    0.20953E+01     0.37464E+00     0.99068E+01
    0.21434E+01     0.36122E+00     0.99828E+01
    0.21919E+01     0.34893E+00     0.10058E+02
    0.22406E+01     0.33769E+00     0.10131E+02
    0.22895E+01     0.32741E+00     0.10204E+02
    0.23386E+01     0.31801E+00     0.10275E+02
    0.23879E+01     0.30942E+00     0.10346E+02
    0.24373E+01     0.30156E+00     0.10415E+02
    0.24868E+01     0.29437E+00     0.10483E+02
    0.25363E+01     0.28779E+00     0.10549E+02
    0.25860E+01     0.28175E+00     0.10615E+02
    0.26357E+01     0.27622E+00     0.10680E+02
    0.26854E+01     0.27113E+00     0.10744E+02
    0.27352E+01     0.26646E+00     0.10807E+02
    0.27850E+01     0.26216E+00     0.10869E+02
    0.28348E+01     0.25820E+00     0.10930E+02
    0.28847E+01     0.25455E+00     0.10991E+02
    0.29346E+01     0.25118E+00     0.11051E+02
    0.29845E+01     0.24806E+00     0.11110E+02
    0.30344E+01     0.24519E+00     0.11169E+02
    0.30843E+01     0.24253E+00     0.11227E+02
    0.31343E+01     0.24007E+00     0.11285E+02
    0.31842E+01     0.23779E+00     0.11342E+02
    0.32342E+01     0.23568E+00     0.11398E+02
    0.32841E+01     0.23372E+00     0.11455E+02
    0.33341E+01     0.23190E+00     0.11511E+02
    0.33841E+01     0.23022E+00     0.11566E+02
    0.34341E+01     0.22865E+00     0.11621E+02
    0.34840E+01     0.22720E+00     0.11676E+02
    0.35340E+01     0.22585E+00     0.11730E+02
    0.35840E+01     0.22460E+00     0.11785E+02
    0.36340E+01     0.22344E+00     0.11839E+02
    0.36840E+01     0.22236E+00     0.11892E+02
    0.37340E+01     0.22135E+00     0.11946E+02
    0.37840E+01     0.22042E+00     0.11999E+02
    0.38339E+01     0.21955E+00     0.12052E+02
    0.38839E+01     0.21875E+00     0.12105E+02
    0.39339E+01     0.21800E+00     0.12158E+02
    0.39839E+01     0.21731E+00     0.12210E+02
    0.40339E+01     0.21667E+00     0.12262E+02
    0.40839E+01     0.21608E+00     0.12315E+02
    0.41339E+01     0.21553E+00     0.12367E+02
    0.41839E+01     0.21503E+00     0.12419E+02
    0.42339E+01     0.21456E+00     0.12471E+02
    0.42839E+01     0.21414E+00     0.12522E+02
    0.43339E+01     0.21374E+00     0.12574E+02
    0.43839E+01     0.21338E+00     0.12626E+02
    0.44339E+01     0.21306E+00     0.12677E+02
    0.44839E+01     0.21276E+00     0.12729E+02
    0.45339E+01     0.21250E+00     0.12780E+02
    0.45839E+01     0.21226E+00     0.12831E+02
    0.46339E+01     0.21205E+00     0.12883E+02
    0.46839E+01     0.21186E+00     0.12934E+02
    0.47339E+01     0.21170E+00     0.12985E+02
    0.47839E+01     0.21157E+00     0.13036E+02
    0.48339E+01     0.21147E+00     0.13087E+02
    0.48839E+01     0.21140E+00     0.13138E+02
    0.49339E+01     0.21135E+00     0.13189E+02
    0.49839E+01     0.21133E+00     0.13240E+02
    0.50339E+01     0.21133E+00     0.13291E+02
ZONE T="area3", I=210, F=POINT
   -0.50000E+01     0.21053E+00     0.00000E+00
   -0.49500E+01     0.21052E+00     0.50981E-01
   -0.49000E+01     0.21050E+00     0.10197E+00
   -0.48500E+01     0.21049E+00     0.15297E+00
   -0.48000E+01     0.21049E+00     0.20399E+00
   -0.47500E+01     0.21052E+00     0.25502E+00
   -0.47000E+01     0.21057E+00     0.30607E+00
   -0.46500E+01     0.21064E+00     0.35715E+00
   -0.46000E+01     0.21074E+00     0.40825E+00
   -0.45500E+01     0.21086E+00     0.45938E+00
   -0.45000E+01     0.21101E+00     0.51055E+00
   -0.44500E+01     0.21119E+00     0.56176E+00
   -0.44000E+01     0.21139E+00     0.61302E+00
   -0.43500E+01     0.21162E+00     0.66433E+00
   -0.43000E+01     0.21188E+00     0.71569E+00
   -0.42500E+01     0.21216E+00     0.76712E+00
   -0.42000E+01     0.21248E+00     0.81862E+00
   -0.41500E+01     0.21283E+00     0.87019E+00
   -0.41000E+01     0.21321E+00     0.92186E+00
   -0.40500E+01     0.21362E+00     0.97361E+00
   -0.40000E+01     0.21408E+00     0.10255E+01
   -0.39500E+01     0.21457E+00     0.10774E+01
   -0.39000E+01     0.21510E+00     0.11295E+01
   -0.38500E+01     0.21568E+00     0.11817E+01
   -0.38000E+01     0.21630E+00     0.12341E+01
   -0.37500E+01     0.21697E+00     0.12866E+01
   -0.37000E+01     0.21770E+00     0.13393E+01
   -0.36500E+01     0.21848E+00     0.13921E+01
   -0.36000E+01     0.21932E+00     0.14451E+01
   -0.35501E+01     0.22023E+00     0.14984E+01
   -0.35001E+01     0.22121E+00     0.15518E+01
   -0.34501E+01     0.22226E+00     0.16055E+01
   -0.34001E+01     0.22339E+00     0.16595E+01
   -0.33501E+01     0.22462E+00     0.17137E+01
   -0.33001E+01     0.22593E+00     0.17682E+01
   -0.32501E+01     0.22734E+00     0.18230E+01
   -0.32002E+01     0.22887E+00     0.18782E+01
   -0.31502E+01     0.23051E+00     0.19337E+01
   -0.31002E+01     0.23228E+00     0.19896E+01
   -0.30503E+01     0.23419E+00     0.20460E+01
   -0.30003E+01     0.23625E+00     0.21027E+01
   -0.29504E+01     0.23847E+00     0.21600E+01
   -0.29004E+01     0.24087E+00     0.22178E+01
   -0.28505E+01     0.24347E+00     0.22762E+01
   -0.28006E+01     0.24627E+00     0.23352E+01
   -0.27506E+01     0.24931E+00     0.23948E+01
   -0.27008E+01     0.25261E+00     0.24552E+01
   -0.26509E+01     0.25618E+00     0.25163E+01
   -0.26010E+01     0.26006E+00     0.25782E+01
   -0.25512E+01     0.26427E+00     0.26410E+01
   -0.25014E+01     0.26886E+00     0.27048E+01
   -0.24517E+01     0.27385E+00     0.27696E+01
   -0.24020E+01     0.27930E+00     0.28355E+01
   -0.23523E+01     0.28526E+00     0.29025E+01
   -0.23028E+01     0.29177E+00     0.29709E+01
   -0.22533E+01     0.29889E+00     0.30405E+01
   -0.22039E+01     0.30671E+00     0.31116E+01
   -0.21546E+01     0.31528E+00     0.31843E+01
   -0.21055E+01     0.32470E+00     0.32585E+01
   -0.20566E+01     0.33505E+00     0.33343E+01
   -0.20079E+01     0.34643E+00     0.34119E+01
   -0.19595E+01     0.35894E+00     0.34912E+01
   -0.19114E+01     0.37268E+00     0.35722E+01
   -0.18638E+01     0.38775E+00     0.36548E+01
   -0.18166E+01     0.40424E+00     0.37389E+01
   -0.17699E+01     0.42221E+00     0.38244E+01
   -0.17239E+01     0.44172E+00     0.39109E+01
   -0.16785E+01     0.46277E+00     0.39981E+01
   -0.16339E+01     0.48535E+00     0.40856E+01
   -0.15901E+01     0.50938E+00     0.41730E+01
   -0.15470E+01     0.53475E+00     0.42598E+01
   -0.15046E+01     0.56133E+00     0.43456E+01
   -0.14630E+01     0.58896E+00     0.44301E+01
   -0.14219E+01     0.61745E+00     0.45128E+01
   -0.13813E+01     0.64662E+00     0.45936E+01
   -0.13410E+01     0.67630E+00     0.46722E+01
   -0.13010E+01     0.70631E+00     0.47486E+01
   -0.12612E+01     0.73648E+00     0.48227E+01
   -0.12213E+01     0.76667E+00     0.48943E+01
   -0.11814E+01     0.79674E+00     0.49636E+01
   -0.11412E+01     0.82656E+00     0.50306E+01
   -0.11008E+01     0.85602E+00     0.50953E+01
   -0.10601E+01     0.88502E+00     0.51578E+01
   -0.10190E+01     0.91346E+00     0.52181E+01
   -0.97741E+00     0.94126E+00     0.52763E+01
   -0.93538E+00     0.96835E+00     0.53325E+01
   -0.89286E+00     0.99464E+00     0.53868E+01
   -0.84982E+00     0.10201E+01     0.54393E+01
   -0.80625E+00     0.10446E+01     0.54900E+01
   -0.76215E+00     0.10682E+01     0.55390E+01
   -0.71753E+00     0.10907E+01     0.55864E+01
   -0.67240E+00     0.11123E+01     0.56323E+01
   -0.62676E+00     0.11327E+01     0.56768E+01
   -0.58063E+00     0.11520E+01     0.57199E+01
   -0.53403E+00     0.11701E+01     0.57617E+01
   -0.48699E+00     0.11870E+01     0.58023E+01
   -0.43953E+00     0.12028E+01     0.58418E+01
   -0.39169E+00     0.12173E+01     0.58802E+01
   -0.34348E+00     0.12305E+01     0.59176E+01
   -0.29495E+00     0.12426E+01     0.59541E+01
   -0.24612E+00     0.12533E+01     0.59897E+01
   -0.19702E+00     0.12628E+01     0.60246E+01
   -0.14770E+00     0.12710E+01     0.60588E+01
   -0.98184E-01     0.12779E+01     0.60923E+01
   -0.48504E-01     0.12835E+01     0.61253E+01
    0.13032E-02     0.12879E+01     0.61577E+01
    0.51205E-01     0.12910E+01     0.61897E+01
    0.10117E+00     0.12928E+01     0.62213E+01
    0.15117E+00     0.12934E+01     0.62526E+01
    0.20116E+00     0.12928E+01     0.62837E+01
    0.25112E+00     0.12910E+01     0.63145E+01
    0.30103E+00     0.12879E+01     0.63453E+01
    0.35085E+00     0.12837E+01     0.63759E+01
    0.40055E+00     0.12782E+01     0.64066E+01
    0.45012E+00     0.12717E+01     0.64373E+01
    0.49952E+00     0.12640E+01     0.64682E+01
    0.54875E+00     0.12552E+01     0.64992E+01
    0.59776E+00     0.12453E+01     0.65305E+01
    0.64655E+00     0.12344E+01     0.65620E+01
    0.69510E+00     0.12225E+01     0.65939E+01
    0.74339E+00     0.12095E+01     0.66263E+01
    0.79140E+00     0.11956E+01     0.66591E+01
    0.83914E+00     0.11807E+01     0.66925E+01
    0.88657E+00     0.11649E+01     0.67265E+01
    0.93371E+00     0.11482E+01     0.67612E+01
    0.98054E+00     0.11307E+01     0.67966E+01
    0.10271E+01     0.11123E+01     0.68328E+01
    0.10733E+01     0.10933E+01     0.68699E+01
    0.11192E+01     0.10734E+01     0.69080E+01
    0.11648E+01     0.10530E+01     0.69470E+01
    0.12101E+01     0.10319E+01     0.69871E+01
    0.12552E+01     0.10102E+01     0.70283E+01
    0.13000E+01     0.98808E+00     0.70707E+01
    0.13446E+01     0.96549E+00     0.71143E+01
    0.13890E+01     0.94254E+00     0.71593E+01
    0.14333E+01     0.91930E+00     0.72055E+01
    0.14775E+01     0.89585E+00     0.72531E+01
    0.15216E+01     0.87227E+00     0.73021E+01
    0.15656E+01     0.84866E+00     0.73526E+01
    0.16098E+01     0.82511E+00     0.74044E+01
    0.16539E+01     0.80171E+00     0.74577E+01
    0.16983E+01     0.77857E+00     0.75123E+01
    0.17428E+01     0.75577E+00     0.75683E+01
    0.17875E+01     0.73342E+00     0.76256E+01
    0.18325E+01     0.71161E+00     0.76841E+01
    0.18778E+01     0.69043E+00     0.77436E+01
    0.19234E+01     0.66996E+00     0.78042E+01
    0.19693E+01     0.65027E+00     0.78655E+01
    0.20157E+01     0.63140E+00     0.79276E+01
    0.20623E+01     0.61342E+00     0.79902E+01
    0.21093E+01     0.59634E+00     0.80532E+01
    0.21566E+01     0.58019E+00     0.81165E+01
    0.22042E+01     0.56496E+00     0.81799E+01
    0.22521E+01     0.55065E+00     0.82433E+01
    0.23003E+01     0.53724E+00     0.83065E+01
    0.23487E+01     0.52470E+00     0.83696E+01
    0.23973E+01     0.51299E+00     0.84324E+01
    0.24461E+01     0.50208E+00     0.84948E+01
    0.24951E+01     0.49193E+00     0.85569E+01
    0.25442E+01     0.48248E+00     0.86185E+01
    0.25934E+01     0.47371E+00     0.86796E+01
    0.26427E+01     0.46556E+00     0.87403E+01
    0.26922E+01     0.45799E+00     0.88005E+01
    0.27417E+01     0.45097E+00     0.88602E+01
    0.27912E+01     0.44444E+00     0.89194E+01
    0.28409E+01     0.43839E+00     0.89781E+01
    0.28905E+01     0.43277E+00     0.90364E+01
    0.29403E+01     0.42755E+00     0.90942E+01
    0.29900E+01     0.42271E+00     0.91517E+01
    0.30398E+01     0.41820E+00     0.92086E+01
    0.30897E+01     0.41402E+00     0.92652E+01
    0.31395E+01     0.41013E+00     0.93215E+01
    0.31894E+01     0.40652E+00     0.93773E+01
    0.32393E+01     0.40316E+00     0.94328E+01
    0.32892E+01     0.40004E+00     0.94880E+01
    0.33391E+01     0.39713E+00     0.95429E+01
    0.33890E+01     0.39443E+00     0.95975E+01
    0.34389E+01     0.39191E+00     0.96518E+01
    0.34889E+01     0.38957E+00     0.97058E+01
    0.35388E+01     0.38739E+00     0.97596E+01
    0.35888E+01     0.38537E+00     0.98132E+01
    0.36388E+01     0.38348E+00     0.98666E+01
    0.36887E+01     0.38173E+00     0.99197E+01
    0.37387E+01     0.38010E+00     0.99727E+01
    0.37887E+01     0.37858E+00     0.10026E+02
    0.38387E+01     0.37717E+00     0.10078E+02
    0.38886E+01     0.37586E+00     0.10131E+02
    0.39386E+01     0.37465E+00     0.10183E+02
    0.39886E+01     0.37352E+00     0.10235E+02
    0.40386E+01     0.37247E+00     0.10287E+02
    0.40886E+01     0.37151E+00     0.10339E+02
    0.41386E+01     0.37061E+00     0.10391E+02
    0.41886E+01     0.36978E+00     0.10443E+02
    0.42386E+01     0.36902E+00     0.10494E+02
    0.42886E+01     0.36832E+00     0.10546E+02
    0.43386E+01     0.36768E+00     0.10597E+02
    0.43886E+01     0.36709E+00     0.10649E+02
    0.44386E+01     0.36655E+00     0.10700E+02
    0.44886E+01     0.36607E+00     0.10751E+02
    0.45386E+01     0.36563E+00     0.10803E+02
    0.45886E+01     0.36523E+00     0.10854E+02
    0.46386E+01     0.36488E+00     0.10905E+02
    0.46886E+01     0.36458E+00     0.10956E+02
    0.47386E+01     0.36431E+00     0.11007E+02
    0.47886E+01     0.36409E+00     0.11058E+02
    0.48386E+01     0.36390E+00     0.11109E+02
    0.48886E+01     0.36375E+00     0.11160E+02
    0.49386E+01     0.36364E+00     0.11211E+02
    0.49886E+01     0.36357E+00     0.11262E+02
    0.50386E+01     0.36351E+00     0.11313E+02
ZONE T="area4", I=208, F=POINT
   -0.50000E+01     0.31579E+00     0.00000E+00
   -0.49500E+01     0.31579E+00     0.50911E-01
   -0.49000E+01     0.31579E+00     0.10182E+00
   -0.48500E+01     0.31580E+00     0.15274E+00
   -0.48000E+01     0.31584E+00     0.20368E+00
   -0.47500E+01     0.31590E+00     0.25463E+00
   -0.47000E+01     0.31599E+00     0.30560E+00
   -0.46500E+01     0.31612E+00     0.35659E+00
   -0.46000E+01     0.31627E+00     0.40760E+00
   -0.45500E+01     0.31646E+00     0.45865E+00
   -0.45000E+01     0.31669E+00     0.50973E+00
   -0.44500E+01     0.31695E+00     0.56085E+00
   -0.44000E+01     0.31725E+00     0.61201E+00
   -0.43500E+01     0.31759E+00     0.66322E+00
   -0.43000E+01     0.31797E+00     0.71448E+00
   -0.42500E+01     0.31839E+00     0.76580E+00
   -0.42000E+01     0.31885E+00     0.81719E+00
   -0.41500E+01     0.31936E+00     0.86865E+00
   -0.41000E+01     0.31992E+00     0.92018E+00
   -0.40500E+01     0.32053E+00     0.97180E+00
   -0.40000E+01     0.32119E+00     0.10235E+01
   -0.39500E+01     0.32191E+00     0.10753E+01
   -0.39000E+01     0.32269E+00     0.11273E+01
   -0.38500E+01     0.32353E+00     0.11793E+01
   -0.38000E+01     0.32443E+00     0.12315E+01
   -0.37501E+01     0.32542E+00     0.12838E+01
   -0.37001E+01     0.32647E+00     0.13362E+01
   -0.36501E+01     0.32761E+00     0.13888E+01
   -0.36001E+01     0.32884E+00     0.14416E+01
   -0.35501E+01     0.33016E+00     0.14946E+01
   -0.35001E+01     0.33158E+00     0.15477E+01
   -0.34502E+01     0.33311E+00     0.16011E+01
   -0.34002E+01     0.33475E+00     0.16547E+01
   -0.33502E+01     0.33652E+00     0.17085E+01
   -0.33003E+01     0.33843E+00     0.17626E+01
   -0.32503E+01     0.34047E+00     0.18170E+01
   -0.32003E+01     0.34267E+00     0.18717E+01
   -0.31504E+01     0.34504E+00     0.19267E+01
   -0.31005E+01     0.34759E+00     0.19820E+01
   -0.30505E+01     0.35033E+00     0.20377E+01
   -0.30006E+01     0.35329E+00     0.20938E+01
   -0.29507E+01     0.35647E+00     0.21503E+01
   -0.29008E+01     0.35990E+00     0.22072E+01
   -0.28510E+01     0.36359E+00     0.22646E+01
   -0.28011E+01     0.36758E+00     0.23225E+01
   -0.27513E+01     0.37188E+00     0.23809E+01
   -0.27015E+01     0.37653E+00     0.24400E+01
   -0.26518E+01     0.38155E+00     0.24996E+01
   -0.26021E+01     0.38697E+00     0.25598E+01
   -0.25524E+01     0.39284E+00     0.26207E+01
   -0.25028E+01     0.39918E+00     0.26824E+01
   -0.24533E+01     0.40605E+00     0.27447E+01
   -0.24039E+01     0.41348E+00     0.28079E+01
   -0.23545E+01     0.42154E+00     0.28718E+01
   -0.23053E+01     0.43026E+00     0.29365E+01
   -0.22562E+01     0.43972E+00     0.30022E+01
   -0.22073E+01     0.44996E+00     0.30686E+01
   -0.21585E+01     0.46104E+00     0.31359E+01
   -0.21100E+01     0.47304E+00     0.32040E+01
   -0.20617E+01     0.48600E+00     0.32729E+01
   -0.20137E+01     0.49998E+00     0.33425E+01
   -0.19660E+01     0.51503E+00     0.34128E+01
   -0.19187E+01     0.53120E+00     0.34835E+01
   -0.18718E+01     0.54850E+00     0.35546E+01
   -0.18253E+01     0.56695E+00     0.36259E+01
   -0.17793E+01     0.58654E+00     0.36973E+01
   -0.17338E+01     0.60724E+00     0.37684E+01
   -0.16888E+01     0.62901E+00     0.38391E+01
   -0.16443E+01     0.65176E+00     0.39091E+01
   -0.16002E+01     0.67542E+00     0.39783E+01
   -0.15566E+01     0.69989E+00     0.40465E+01
   -0.15134E+01     0.72504E+00     0.41134E+01
   -0.14705E+01     0.75076E+00     0.41789E+01
   -0.14279E+01     0.77693E+00     0.42430E+01
   -0.13855E+01     0.80342E+00     0.43055E+01
   -0.13432E+01     0.83011E+00     0.43664E+01
   -0.13010E+01     0.85688E+00     0.44256E+01
   -0.12588E+01     0.88364E+00     0.44831E+01
   -0.12164E+01     0.91026E+00     0.45390E+01
   -0.11740E+01     0.93666E+00     0.45932E+01
   -0.11313E+01     0.96275E+00     0.46457E+01
   -0.10884E+01     0.98844E+00     0.46967E+01
   -0.10452E+01     0.10136E+01     0.47460E+01
   -0.10017E+01     0.10383E+01     0.47939E+01
   -0.95790E+00     0.10624E+01     0.48403E+01
   -0.91371E+00     0.10857E+01     0.48852E+01
   -0.86913E+00     0.11084E+01     0.49288E+01
   -0.82417E+00     0.11302E+01     0.49711E+01
   -0.77881E+00     0.11513E+01     0.50121E+01
   -0.73306E+00     0.11715E+01     0.50519E+01
   -0.68693E+00     0.11907E+01     0.50906E+01
   -0.64041E+00     0.12091E+01     0.51282E+01
   -0.59352E+00     0.12264E+01     0.51647E+01
   -0.54627E+00     0.12428E+01     0.52003E+01
   -0.49869E+00     0.12581E+01     0.52349E+01
   -0.45078E+00     0.12724E+01     0.52687E+01
   -0.40257E+00     0.12857E+01     0.53017E+01
   -0.35407E+00     0.12979E+01     0.53339E+01
   -0.30532E+00     0.13089E+01     0.53654E+01
   -0.25633E+00     0.13189E+01     0.53962E+01
   -0.20713E+00     0.13278E+01     0.54265E+01
   -0.15774E+00     0.13356E+01     0.54561E+01
   -0.10819E+00     0.13423E+01     0.54853E+01
   -0.58501E-01     0.13479E+01     0.55141E+01
   -0.87026E-02     0.13524E+01     0.55425E+01
    0.41182E-01     0.13557E+01     0.55705E+01
    0.91128E-01     0.13580E+01     0.55982E+01
    0.14111E+00     0.13593E+01     0.56257E+01
    0.19111E+00     0.13594E+01     0.56530E+01
    0.24110E+00     0.13585E+01     0.56802E+01
    0.29106E+00     0.13565E+01     0.57072E+01
    0.34097E+00     0.13535E+01     0.57343E+01
    0.39081E+00     0.13495E+01     0.57613E+01
    0.44056E+00     0.13445E+01     0.57884E+01
    0.49019E+00     0.13385E+01     0.58155E+01
    0.53971E+00     0.13315E+01     0.58429E+01
    0.58908E+00     0.13236E+01     0.58704E+01
    0.63829E+00     0.13148E+01     0.58982E+01
    0.68733E+00     0.13050E+01     0.59263E+01
    0.73619E+00     0.12944E+01     0.59547E+01
    0.78485E+00     0.12829E+01     0.59836E+01
    0.83331E+00     0.12706E+01     0.60128E+01
    0.88156E+00     0.12575E+01     0.60426E+01
    0.92958E+00     0.12436E+01     0.60730E+01
    0.97739E+00     0.12289E+01     0.61039E+01
    0.10250E+01     0.12135E+01     0.61355E+01
    0.10723E+01     0.11975E+01     0.61678E+01
    0.11194E+01     0.11808E+01     0.62008E+01
    0.11663E+01     0.11634E+01     0.62347E+01
    0.12130E+01     0.11455E+01     0.62694E+01
    0.12595E+01     0.11271E+01     0.63050E+01
    0.13058E+01     0.11081E+01     0.63416E+01
    0.13519E+01     0.10888E+01     0.63791E+01
    0.13978E+01     0.10691E+01     0.64177E+01
    0.14436E+01     0.10490E+01     0.64573E+01
    0.14893E+01     0.10287E+01     0.64981E+01
    0.15349E+01     0.10082E+01     0.65399E+01
    0.15804E+01     0.98756E+00     0.65829E+01
    0.16260E+01     0.96686E+00     0.66271E+01
    0.16715E+01     0.94619E+00     0.66725E+01
    0.17170E+01     0.92560E+00     0.67189E+01
    0.17627E+01     0.90517E+00     0.67666E+01
    0.18084E+01     0.88497E+00     0.68154E+01
    0.18543E+01     0.86509E+00     0.68652E+01
    0.19003E+01     0.84558E+00     0.69161E+01
    0.19466E+01     0.82652E+00     0.69679E+01
    0.19930E+01     0.80796E+00     0.70207E+01
    0.20396E+01     0.78996E+00     0.70743E+01
    0.20865E+01     0.77258E+00     0.71286E+01
    0.21336E+01     0.75584E+00     0.71836E+01
    0.21810E+01     0.73979E+00     0.72392E+01
    0.22286E+01     0.72444E+00     0.72952E+01
    0.22764E+01     0.70981E+00     0.73516E+01
    0.23244E+01     0.69590E+00     0.74083E+01
    0.23726E+01     0.68272E+00     0.74652E+01
    0.24211E+01     0.67026E+00     0.75222E+01
    0.24697E+01     0.65849E+00     0.75793E+01
    0.25184E+01     0.64741E+00     0.76364E+01
    0.25673E+01     0.63699E+00     0.76935E+01
    0.26163E+01     0.62720E+00     0.77504E+01
    0.26655E+01     0.61802E+00     0.78072E+01
    0.27148E+01     0.60942E+00     0.78639E+01
    0.27641E+01     0.60137E+00     0.79203E+01
    0.28135E+01     0.59383E+00     0.79766E+01
    0.28630E+01     0.58679E+00     0.80326E+01
    0.29126E+01     0.58020E+00     0.80884E+01
    0.29622E+01     0.57405E+00     0.81440E+01
    0.30119E+01     0.56831E+00     0.81993E+01
    0.30616E+01     0.56294E+00     0.82543E+01
    0.31113E+01     0.55793E+00     0.83092E+01
    0.31611E+01     0.55326E+00     0.83638E+01
    0.32109E+01     0.54890E+00     0.84181E+01
    0.32608E+01     0.54483E+00     0.84723E+01
    0.33106E+01     0.54103E+00     0.85262E+01
    0.33605E+01     0.53748E+00     0.85799E+01
    0.34104E+01     0.53418E+00     0.86334E+01
    0.34603E+01     0.53110E+00     0.86868E+01
    0.35102E+01     0.52822E+00     0.87399E+01
    0.35601E+01     0.52554E+00     0.87929E+01
    0.36101E+01     0.52304E+00     0.88457E+01
    0.36600E+01     0.52071E+00     0.88983E+01
    0.37100E+01     0.51854E+00     0.89508E+01
    0.37599E+01     0.51652E+00     0.90032E+01
    0.38099E+01     0.51464E+00     0.90554E+01
    0.38599E+01     0.51289E+00     0.91075E+01
    0.39098E+01     0.51126E+00     0.91595E+01
    0.39598E+01     0.50975E+00     0.92113E+01
    0.40098E+01     0.50834E+00     0.92631E+01
    0.40598E+01     0.50704E+00     0.93148E+01
    0.41098E+01     0.50583E+00     0.93663E+01
    0.41598E+01     0.50472E+00     0.94178E+01
    0.42097E+01     0.50369E+00     0.94692E+01
    0.42597E+01     0.50274E+00     0.95206E+01
    0.43097E+01     0.50186E+00     0.95718E+01
    0.43597E+01     0.50106E+00     0.96230E+01
    0.44097E+01     0.50033E+00     0.96742E+01
    0.44597E+01     0.49966E+00     0.97252E+01
    0.45097E+01     0.49905E+00     0.97763E+01
    0.45597E+01     0.49851E+00     0.98273E+01
    0.46097E+01     0.49802E+00     0.98782E+01