 TITLE = "Triangle Mesh"
 VARIABLES = "X", "Y"
ZONE T="area_e" N=4343, E=4200, F=FEPOINT, ET=QUADRILATERAL
  1.00000   0.00000
  0.99951   0.03141
  0.99803   0.06279
  0.99556   0.09411
  0.99211   0.12533
  0.98769   0.15643
  0.98229   0.18738
  0.97592   0.21814
  0.96858   0.24869
  0.96029   0.27899
  0.95106   0.30902
  0.94088   0.33874
  0.92978   0.36812
  0.91775   0.39715
  0.90483   0.42578
  0.89101   0.45399
  0.87631   0.48175
  0.86074   0.50904
  0.84433   0.53583
  0.82708   0.56208
  0.80902   0.58779
  0.79016   0.61291
  0.77051   0.63742
  0.75011   0.66131
  0.72897   0.68455
  0.70711   0.70711
  0.68455   0.72897
  0.66131   0.75011
  0.63742   0.77051
  0.61291   0.79016
  0.58779   0.80902
  0.56208   0.82708
  0.53583   0.84433
  0.50904   0.86074
  0.48175   0.87631
  0.45399   0.89101
  0.42578   0.90483
  0.39715   0.91775
  0.36812   0.92978
  0.33874   0.94088
  0.30902   0.95106
  0.27899   0.96029
  0.24869   0.96858
  0.21814   0.97592
  0.18738   0.98229
  0.15643   0.98769
  0.12533   0.99211
  0.09411   0.99556
  0.06279   0.99803
  0.03141   0.99951
  0.00000   1.00000
 -0.03141   0.99951
 -0.06279   0.99803
 -0.09411   0.99556
 -0.12533   0.99211
 -0.15643   0.98769
 -0.18738   0.98229
 -0.21814   0.97592
 -0.24869   0.96858
 -0.27899   0.96029
 -0.30902   0.95106
 -0.33874   0.94088
 -0.36812   0.92978
 -0.39715   0.91775
 -0.42578   0.90483
 -0.45399   0.89101
 -0.48175   0.87631
 -0.50904   0.86074
 -0.53583   0.84433
 -0.56208   0.82708
 -0.58779   0.80902
 -0.61291   0.79016
 -0.63742   0.77051
 -0.66131   0.75011
 -0.68455   0.72897
 -0.70711   0.70711
 -0.72897   0.68455
 -0.75011   0.66131
 -0.77051   0.63742
 -0.79016   0.61291
 -0.80902   0.58779
 -0.82708   0.56208
 -0.84433   0.53583
 -0.86074   0.50904
 -0.87631   0.48175
 -0.89101   0.45399
 -0.90483   0.42578
 -0.91775   0.39715
 -0.92978   0.36812
 -0.94088   0.33874
 -0.95106   0.30902
 -0.96029   0.27899
 -0.96858   0.24869
 -0.97592   0.21814
 -0.98229   0.18738
 -0.98769   0.15643
 -0.99211   0.12533
 -0.99556   0.09411
 -0.99803   0.06279
 -0.99951   0.03141
 -1.00000   0.00000
  1.03142   0.00000
  1.03091   0.03240
  1.02938   0.06476
  1.02684   0.09706
  1.02328   0.12927
  1.01872   0.16135
  1.01315   0.19327
  1.00658   0.22500
  0.99901   0.25650
  0.99046   0.28776
  0.98093   0.31873
  0.97044   0.34938
  0.95899   0.37969
  0.94659   0.40962
  0.93325   0.43916
  0.91900   0.46825
  0.90384   0.49689
  0.88778   0.52503
  0.87085   0.55266
  0.85306   0.57974
  0.83443   0.60625
  0.81498   0.63216
  0.79472   0.65745
  0.77368   0.68209
  0.75187   0.70605
  0.72932   0.72932
  0.70605   0.75187
  0.68209   0.77368
  0.65745   0.79472
  0.63216   0.81498
  0.60625   0.83443
  0.57974   0.85306
  0.55266   0.87085
  0.52503   0.88778
  0.49689   0.90384
  0.46825   0.91900
  0.43916   0.93325
  0.40962   0.94659
  0.37969   0.95899
  0.34938   0.97044
  0.31873   0.98093
  0.28776   0.99046
  0.25650   0.99901
  0.22500   1.00658
  0.19327   1.01315
  0.16135   1.01872
  0.12927   1.02328
  0.09706   1.02684
  0.06476   1.02938
  0.03240   1.03091
  0.00000   1.03142
 -0.03240   1.03091
 -0.06476   1.02938
 -0.09706   1.02684
 -0.12927   1.02328
 -0.16135   1.01872
 -0.19327   1.01315
 -0.22500   1.00658
 -0.25650   0.99901
 -0.28776   0.99046
 -0.31873   0.98093
 -0.34938   0.97044
 -0.37969   0.95899
 -0.40962   0.94659
 -0.43916   0.93325
 -0.46825   0.91900
 -0.49689   0.90384
 -0.52503   0.88778
 -0.55266   0.87085
 -0.57974   0.85306
 -0.60625   0.83443
 -0.63216   0.81498
 -0.65745   0.79472
 -0.68209   0.77368
 -0.70605   0.75187
 -0.72932   0.72932
 -0.75187   0.70605
 -0.77368   0.68209
 -0.79472   0.65745
 -0.81498   0.63216
 -0.83443   0.60625
 -0.85306   0.57974
 -0.87085   0.55266
 -0.88778   0.52503
 -0.90384   0.49689
 -0.91900   0.46825
 -0.93325   0.43916
 -0.94659   0.40962
 -0.95899   0.37969
 -0.97044   0.34938
 -0.98093   0.31873
 -0.99046   0.28776
 -0.99901   0.25650
 -1.00658   0.22500
 -1.01315   0.19327
 -1.01872   0.16135
 -1.02328   0.12927
 -1.02684   0.09706
 -1.02938   0.06476
 -1.03091   0.03240
 -1.03142   0.00000
  1.06596   0.00000
  1.06544   0.03348
  1.06386   0.06693
  1.06123   0.10032
  1.05756   0.13360
  1.05284   0.16675
  1.04708   0.19974
  1.04029   0.23253
  1.03247   0.26509
  1.02364   0.29739
  1.01379   0.32940
  1.00294   0.36108
  0.99111   0.39241
  0.97829   0.42334
  0.96451   0.45387
  0.94978   0.48394
  0.93411   0.51353
  0.91752   0.54262
  0.90002   0.57117
  0.88164   0.59916
  0.86238   0.62656
  0.84228   0.65334
  0.82134   0.67947
  0.79959   0.70493
  0.77705   0.72970
  0.75375   0.75375
  0.72970   0.77705
  0.70493   0.79959
  0.67947   0.82134
  0.65334   0.84228
  0.62656   0.86238
  0.59916   0.88164
  0.57117   0.90002
  0.54262   0.91752
  0.51353   0.93411
  0.48394   0.94978
  0.45387   0.96451
  0.42334   0.97829
  0.39241   0.99111
  0.36108   1.00294
  0.32940   1.01379
  0.29739   1.02364
  0.26509   1.03247
  0.23253   1.04029
  0.19974   1.04708
  0.16675   1.05284
  0.13360   1.05756
  0.10032   1.06123
  0.06693   1.06386
  0.03348   1.06544
  0.00000   1.06596
 -0.03348   1.06544
 -0.06693   1.06386
 -0.10032   1.06123
 -0.13360   1.05756
 -0.16675   1.05284
 -0.19974   1.04708
 -0.23253   1.04029
 -0.26509   1.03247
 -0.29739   1.02364
 -0.32940   1.01379
 -0.36108   1.00294
 -0.39241   0.99111
 -0.42334   0.97829
 -0.45387   0.96451
 -0.48394   0.94978
 -0.51353   0.93411
 -0.54262   0.91752
 -0.57117   0.90002
 -0.59916   0.88164
 -0.62656   0.86238
 -0.65334   0.84228
 -0.67947   0.82134
 -0.70493   0.79959
 -0.72970   0.77705
 -0.75375   0.75375
 -0.77705   0.72970
 -0.79959   0.70493
 -0.82134   0.67947
 -0.84228   0.65334
 -0.86238   0.62656
 -0.88164   0.59916
 -0.90002   0.57117
 -0.91752   0.54262
 -0.93411   0.51353
 -0.94978   0.48394
 -0.96451   0.45387
 -0.97829   0.42334
 -0.99111   0.39241
 -1.00294   0.36108
 -1.01379   0.32940
 -1.02364   0.29739
 -1.03247   0.26509
 -1.04029   0.23253
 -1.04708   0.19974
 -1.05284   0.16675
 -1.05756   0.13360
 -1.06123   0.10032
 -1.06386   0.06693
 -1.06544   0.03348
 -1.06596   0.00000
  1.10363   0.00000
  1.10308   0.03467
  1.10145   0.06930
  1.09873   0.10386
  1.09492   0.13832
  1.09004   0.17265
  1.08408   0.20680
  1.07705   0.24075
  1.06895   0.27446
  1.05980   0.30790
  1.04961   0.34104
  1.03838   0.37384
  1.02612   0.40627
  1.01286   0.43830
  0.99859   0.46990
  0.98334   0.50104
  0.96711   0.53168
  0.94994   0.56179
  0.93182   0.59135
  0.91279   0.62033
  0.89285   0.64869
  0.87203   0.67642
  0.85036   0.70348
  0.82784   0.72984
  0.80451   0.75548
  0.78038   0.78038
  0.75548   0.80451
  0.72984   0.82784
  0.70348   0.85036
  0.67642   0.87203
  0.64869   0.89285
  0.62033   0.91279
  0.59135   0.93182
  0.56179   0.94994
  0.53168   0.96711
  0.50104   0.98334
  0.46990   0.99859
  0.43830   1.01286
  0.40627   1.02612
  0.37384   1.03838
  0.34104   1.04961
  0.30790   1.05980
  0.27446   1.06895
  0.24075   1.07705
  0.20680   1.08408
  0.17265   1.09004
  0.13832   1.09492
  0.10386   1.09873
  0.06930   1.10145
  0.03467   1.10308
  0.00000   1.10363
 -0.03467   1.10308
 -0.06930   1.10145
 -0.10386   1.09873
 -0.13832   1.09492
 -0.17265   1.09004
 -0.20680   1.08408
 -0.24075   1.07705
 -0.27446   1.06895
 -0.30790   1.05980
 -0.34104   1.04961
 -0.37384   1.03838
 -0.40627   1.02612
 -0.43830   1.01286
 -0.46990   0.99859
 -0.50104   0.98334
 -0.53168   0.96711
 -0.56179   0.94994
 -0.59135   0.93182
 -0.62033   0.91279
 -0.64869   0.89285
 -0.67642   0.87203
 -0.70348   0.85036
 -0.72984   0.82784
 -0.75548   0.80451
 -0.78038   0.78038
 -0.80451   0.75548
 -0.82784   0.72984
 -0.85036   0.70348
 -0.87203   0.67642
 -0.89285   0.64869
 -0.91279   0.62033
 -0.93182   0.59135
 -0.94994   0.56179
 -0.96711   0.53168
 -0.98334   0.50104
 -0.99859   0.46990
 -1.01286   0.43830
 -1.02612   0.40627
 -1.03838   0.37384
 -1.04961   0.34104
 -1.05980   0.30790
 -1.06895   0.27446
 -1.07705   0.24075
 -1.08408   0.20680
 -1.09004   0.17265
 -1.09492   0.13832
 -1.09873   0.10386
 -1.10145   0.06930
 -1.10308   0.03467
 -1.10363   0.00000
  1.14440   0.00000
  1.14384   0.03595
  1.14214   0.07186
  1.13932   0.10770
  1.13538   0.14343
  1.13031   0.17902
  1.12413   0.21444
  1.11684   0.24964
  1.10845   0.28460
  1.09896   0.31928
  1.08839   0.35364
  1.07675   0.38765
  1.06404   0.42128
  1.05028   0.45450
  1.03549   0.48726
  1.01967   0.51955
  1.00285   0.55132
  0.98503   0.58255
  0.96625   0.61320
  0.94651   0.64325
  0.92584   0.67266
  0.90426   0.70141
  0.88178   0.72947
  0.85843   0.75681
  0.83423   0.78340
  0.80921   0.80921
  0.78340   0.83423
  0.75681   0.85843
  0.72947   0.88178
  0.70141   0.90426
  0.67266   0.92584
  0.64325   0.94651
  0.61320   0.96625
  0.58255   0.98503
  0.55132   1.00285
  0.51955   1.01967
  0.48726   1.03549
  0.45450   1.05028
  0.42128   1.06404
  0.38765   1.07675
  0.35364   1.08839
  0.31928   1.09896
  0.28460   1.10845
  0.24964   1.11684
  0.21444   1.12413
  0.17902   1.13031
  0.14343   1.13538
  0.10770   1.13932
  0.07186   1.14214
  0.03595   1.14384
  0.00000   1.14440
 -0.03595   1.14384
 -0.07186   1.14214
 -0.10770   1.13932
 -0.14343   1.13538
 -0.17902   1.13031
 -0.21444   1.12413
 -0.24964   1.11684
 -0.28460   1.10845
 -0.31928   1.09896
 -0.35364   1.08839
 -0.38765   1.07675
 -0.42128   1.06404
 -0.45450   1.05028
 -0.48726   1.03549
 -0.51955   1.01967
 -0.55132   1.00285
 -0.58255   0.98503
 -0.61320   0.96625
 -0.64325   0.94651
 -0.67266   0.92584
 -0.70141   0.90426
 -0.72947   0.88178
 -0.75681   0.85843
 -0.78340   0.83423
 -0.80921   0.80921
 -0.83423   0.78340
 -0.85843   0.75681
 -0.88178   0.72947
 -0.90426   0.70141
 -0.92584   0.67266
 -0.94651   0.64325
 -0.96625   0.61320
 -0.98503   0.58255
 -1.00285   0.55132
 -1.01967   0.51955
 -1.03549   0.48726
 -1.05028   0.45450
 -1.06404   0.42128
 -1.07675   0.38765
 -1.08839   0.35364
 -1.09896   0.31928
 -1.10845   0.28460
 -1.11684   0.24964
 -1.12413   0.21444
 -1.13031   0.17902
 -1.13538   0.14343
 -1.13932   0.10770
 -1.14214   0.07186
 -1.14384   0.03595
 -1.14440   0.00000
  1.18829   0.00000
  1.18771   0.03733
  1.18595   0.07461
  1.18302   0.11183
  1.17892   0.14893
  1.17366   0.18589
  1.16725   0.22266
  1.15968   0.25922
  1.15096   0.29552
  1.14111   0.33152
  1.13013   0.36720
  1.11804   0.40252
  1.10485   0.43744
  1.09056   0.47193
  1.07520   0.50595
  1.05878   0.53947
  1.04131   0.57246
  1.02281   0.60489
  1.00331   0.63672
  0.98281   0.66792
  0.96135   0.69846
  0.93894   0.72831
  0.91560   0.75745
  0.89135   0.78583
  0.86623   0.81344
  0.84025   0.84025
  0.81344   0.86623
  0.78583   0.89135
  0.75745   0.91560
  0.72831   0.93894
  0.69846   0.96135
  0.66792   0.98281
  0.63672   1.00331
  0.60489   1.02281
  0.57246   1.04131
  0.53947   1.05878
  0.50595   1.07520
  0.47193   1.09056
  0.43744   1.10485
  0.40252   1.11804
  0.36720   1.13013
  0.33152   1.14111
  0.29552   1.15096
  0.25922   1.15968
  0.22266   1.16725
  0.18589   1.17366
  0.14893   1.17892
  0.11183   1.18302
  0.07461   1.18595
  0.03733   1.18771
  0.00000   1.18829
 -0.03733   1.18771
 -0.07461   1.18595
 -0.11183   1.18302
 -0.14893   1.17892
 -0.18589   1.17366
 -0.22266   1.16725
 -0.25922   1.15968
 -0.29552   1.15096
 -0.33152   1.14111
 -0.36720   1.13013
 -0.40252   1.11804
 -0.43744   1.10485
 -0.47193   1.09056
 -0.50595   1.07520
 -0.53947   1.05878
 -0.57246   1.04131
 -0.60489   1.02281
 -0.63672   1.00331
 -0.66792   0.98281
 -0.69846   0.96135
 -0.72831   0.93894
 -0.75745   0.91560
 -0.78583   0.89135
 -0.81344   0.86623
 -0.84025   0.84025
 -0.86623   0.81344
 -0.89135   0.78583
 -0.91560   0.75745
 -0.93894   0.72831
 -0.96135   0.69846
 -0.98281   0.66792
 -1.00331   0.63672
 -1.02281   0.60489
 -1.04131   0.57246
 -1.05878   0.53947
 -1.07520   0.50595
 -1.09056   0.47193
 -1.10485   0.43744
 -1.11804   0.40252
 -1.13013   0.36720
 -1.14111   0.33152
 -1.15096   0.29552
 -1.15968   0.25922
 -1.16725   0.22266
 -1.17366   0.18589
 -1.17892   0.14893
 -1.18302   0.11183
 -1.18595   0.07461
 -1.18771   0.03733
 -1.18829   0.00000
  1.23530   0.00000
  1.23469   0.03880
  1.23286   0.07757
  1.22982   0.11625
  1.22556   0.15482
  1.22009   0.19324
  1.21342   0.23147
  1.20555   0.26947
  1.19649   0.30721
  1.18625   0.34464
  1.17484   0.38173
  1.16227   0.41844
  1.14855   0.45474
  1.13370   0.49060
  1.11773   0.52597
  1.10066   0.56081
  1.08250   0.59511
  1.06328   0.62882
  1.04300   0.66191
  1.02169   0.69434
  0.99938   0.72609
  0.97608   0.75712
  0.95182   0.78741
  0.92661   0.81692
  0.90050   0.84562
  0.87349   0.87349
  0.84562   0.90050
  0.81692   0.92661
  0.78741   0.95182
  0.75712   0.97608
  0.72609   0.99938
  0.69434   1.02169
  0.66191   1.04300
  0.62882   1.06328
  0.59511   1.08250
  0.56081   1.10066
  0.52597   1.11773
  0.49060   1.13370
  0.45474   1.14855
  0.41844   1.16227
  0.38173   1.17484
  0.34464   1.18625
  0.30721   1.19649
  0.26947   1.20555
  0.23147   1.21342
  0.19324   1.22009
  0.15482   1.22556
  0.11625   1.22982
  0.07757   1.23286
  0.03880   1.23469
  0.00000   1.23530
 -0.03880   1.23469
 -0.07757   1.23286
 -0.11625   1.22982
 -0.15482   1.22556
 -0.19324   1.22009
 -0.23147   1.21342
 -0.26947   1.20555
 -0.30721   1.19649
 -0.34464   1.18625
 -0.38173   1.17484
 -0.41844   1.16227
 -0.45474   1.14855
 -0.49060   1.13370
 -0.52597   1.11773
 -0.56081   1.10066
 -0.59511   1.08250
 -0.62882   1.06328
 -0.66191   1.04300
 -0.69434   1.02169
 -0.72609   0.99938
 -0.75712   0.97608
 -0.78741   0.95182
 -0.81692   0.92661
 -0.84562   0.90050
 -0.87349   0.87349
 -0.90050   0.84562
 -0.92661   0.81692
 -0.95182   0.78741
 -0.97608   0.75712
 -0.99938   0.72609
 -1.02169   0.69434
 -1.04300   0.66191
 -1.06328   0.62882
 -1.08250   0.59511
 -1.10066   0.56081
 -1.11773   0.52597
 -1.13370   0.49060
 -1.14855   0.45474
 -1.16227   0.41844
 -1.17484   0.38173
 -1.18625   0.34464
 -1.19649   0.30721
 -1.20555   0.26947
 -1.21342   0.23147
 -1.22009   0.19324
 -1.22556   0.15482
 -1.22982   0.11625
 -1.23286   0.07757
 -1.23469   0.03880
 -1.23530   0.00000
  1.28542   0.00000
  1.28479   0.04038
  1.28289   0.08071
  1.27972   0.12097
  1.27529   0.16111
  1.26960   0.20108
  1.26265   0.24086
  1.25447   0.28041
  1.24504   0.31967
  1.23438   0.35862
  1.22251   0.39722
  1.20943   0.43542
  1.19516   0.47320
  1.17970   0.51050
  1.16308   0.54731
  1.14532   0.58357
  1.12642   0.61926
  1.10642   0.65433
  1.08532   0.68876
  1.06315   0.72251
  1.03993   0.75555
  1.01568   0.78784
  0.99043   0.81936
  0.96421   0.85007
  0.93703   0.87993
  0.90893   0.90893
  0.87993   0.93703
  0.85007   0.96421
  0.81936   0.99043
  0.78784   1.01568
  0.75555   1.03993
  0.72251   1.06315
  0.68876   1.08532
  0.65433   1.10642
  0.61926   1.12642
  0.58357   1.14532
  0.54731   1.16308
  0.51050   1.17970
  0.47320   1.19516
  0.43542   1.20943
  0.39722   1.22251
  0.35862   1.23438
  0.31967   1.24504
  0.28041   1.25447
  0.24086   1.26265
  0.20108   1.26960
  0.16111   1.27529
  0.12097   1.27972
  0.08071   1.28289
  0.04038   1.28479
  0.00000   1.28542
 -0.04038   1.28479
 -0.08071   1.28289
 -0.12097   1.27972
 -0.16111   1.27529
 -0.20108   1.26960
 -0.24086   1.26265
 -0.28041   1.25447
 -0.31967   1.24504
 -0.35862   1.23438
 -0.39722   1.22251
 -0.43542   1.20943
 -0.47320   1.19516
 -0.51050   1.17970
 -0.54731   1.16308
 -0.58357   1.14532
 -0.61926   1.12642
 -0.65433   1.10642
 -0.68876   1.08532
 -0.72251   1.06315
 -0.75555   1.03993
 -0.78784   1.01568
 -0.81936   0.99043
 -0.85007   0.96421
 -0.87993   0.93703
 -0.90893   0.90893
 -0.93703   0.87993
 -0.96421   0.85007
 -0.99043   0.81936
 -1.01568   0.78784
 -1.03993   0.75555
 -1.06315   0.72251
 -1.08532   0.68876
 -1.10642   0.65433
 -1.12642   0.61926
 -1.14532   0.58357
 -1.16308   0.54731
 -1.17970   0.51050
 -1.19516   0.47320
 -1.20943   0.43542
 -1.22251   0.39722
 -1.23438   0.35862
 -1.24504   0.31967
 -1.25447   0.28041
 -1.26265   0.24086
 -1.26960   0.20108
 -1.27529   0.16111
 -1.27972   0.12097
 -1.28289   0.08071
 -1.28479   0.04038
 -1.28542   0.00000
  1.33866   0.00000
  1.33800   0.04205
  1.33602   0.08406
  1.33272   0.12598
  1.32810   0.16778
  1.32218   0.20941
  1.31495   0.25084
  1.30642   0.29202
  1.29660   0.33291
  1.28551   0.37347
  1.27314   0.41367
  1.25952   0.45345
  1.24465   0.49279
  1.22856   0.53165
  1.21125   0.56997
  1.19275   0.60774
  1.17308   0.64490
  1.15224   0.68143
  1.13027   0.71729
  1.10718   0.75244
  1.08300   0.78684
  1.05775   0.82047
  1.03145   0.85329
  1.00414   0.88527
  0.97584   0.91638
  0.94657   0.94657
  0.91638   0.97584
  0.88527   1.00414
  0.85329   1.03145
  0.82047   1.05775
  0.78684   1.08300
  0.75244   1.10718
  0.71729   1.13027
  0.68143   1.15224
  0.64490   1.17308
  0.60774   1.19275
  0.56997   1.21125
  0.53165   1.22856
  0.49279   1.24465
  0.45345   1.25952
  0.41367   1.27314
  0.37347   1.28551
  0.33291   1.29660
  0.29202   1.30642
  0.25084   1.31495
  0.20941   1.32218
  0.16778   1.32810
  0.12598   1.33272
  0.08406   1.33602
  0.04205   1.33800
  0.00000   1.33866
 -0.04205   1.33800
 -0.08406   1.33602
 -0.12598   1.33272
 -0.16778   1.32810
 -0.20941   1.32218
 -0.25084   1.31495
 -0.29202   1.30642
 -0.33291   1.29660
 -0.37347   1.28551
 -0.41367   1.27314
 -0.45345   1.25952
 -0.49279   1.24465
 -0.53165   1.22856
 -0.56997   1.21125
 -0.60774   1.19275
 -0.64490   1.17308
 -0.68143   1.15224
 -0.71729   1.13027
 -0.75244   1.10718
 -0.78684   1.08300
 -0.82047   1.05775
 -0.85329   1.03145
 -0.88527   1.00414
 -0.91638   0.97584
 -0.94657   0.94657
 -0.97584   0.91638
 -1.00414   0.88527
 -1.03145   0.85329
 -1.05775   0.82047
 -1.08300   0.78684
 -1.10718   0.75244
 -1.13027   0.71729
 -1.15224   0.68143
 -1.17308   0.64490
 -1.19275   0.60774
 -1.21125   0.56997
 -1.22856   0.53165
 -1.24465   0.49279
 -1.25952   0.45345
 -1.27314   0.41367
 -1.28551   0.37347
 -1.29660   0.33291
 -1.30642   0.29202
 -1.31495   0.25084
 -1.32218   0.20941
 -1.32810   0.16778
 -1.33272   0.12598
 -1.33602   0.08406
 -1.33800   0.04205
 -1.33866   0.00000
  1.39501   0.00000
  1.39432   0.04382
  1.39226   0.08759
  1.38882   0.13128
  1.38401   0.17484
  1.37784   0.21823
  1.37030   0.26140
  1.36141   0.30431
  1.35118   0.34692
  1.33962   0.38920
  1.32673   0.43108
  1.31254   0.47254
  1.29705   0.51354
  1.28028   0.55403
  1.26224   0.59397
  1.24296   0.63332
  1.22246   0.67205
  1.20074   0.71012
  1.17785   0.74748
  1.15379   0.78411
  1.12859   0.81997
  1.10227   0.85501
  1.07487   0.88921
  1.04641   0.92254
  1.01692   0.95495
  0.98642   0.98642
  0.95495   1.01692
  0.92254   1.04641
  0.88921   1.07487
  0.85501   1.10227
  0.81997   1.12859
  0.78411   1.15379
  0.74748   1.17785
  0.71012   1.20074
  0.67205   1.22246
  0.63332   1.24296
  0.59397   1.26224
  0.55403   1.28028
  0.51354   1.29705
  0.47254   1.31254
  0.43108   1.32673
  0.38920   1.33962
  0.34692   1.35118
  0.30431   1.36141
  0.26140   1.37030
  0.21823   1.37784
  0.17484   1.38401
  0.13128   1.38882
  0.08759   1.39226
  0.04382   1.39432
  0.00000   1.39501
 -0.04382   1.39432
 -0.08759   1.39226
 -0.13128   1.38882
 -0.17484   1.38401
 -0.21823   1.37784
 -0.26140   1.37030
 -0.30431   1.36141
 -0.34692   1.35118
 -0.38920   1.33962
 -0.43108   1.32673
 -0.47254   1.31254
 -0.51354   1.29705
 -0.55403   1.28028
 -0.59397   1.26224
 -0.63332   1.24296
 -0.67205   1.22246
 -0.71012   1.20074
 -0.74748   1.17785
 -0.78411   1.15379
 -0.81997   1.12859
 -0.85501   1.10227
 -0.88921   1.07487
 -0.92254   1.04641
 -0.95495   1.01692
 -0.98642   0.98642
 -1.01692   0.95495
 -1.04641   0.92254
 -1.07487   0.88921
 -1.10227   0.85501
 -1.12859   0.81997
 -1.15379   0.78411
 -1.17785   0.74748
 -1.20074   0.71012
 -1.22246   0.67205
 -1.24296   0.63332
 -1.26224   0.59397
 -1.28028   0.55403
 -1.29705   0.51354
 -1.31254   0.47254
 -1.32673   0.43108
 -1.33962   0.38920
 -1.35118   0.34692
 -1.36141   0.30431
 -1.37030   0.26140
 -1.37784   0.21823
 -1.38401   0.17484
 -1.38882   0.13128
 -1.39226   0.08759
 -1.39432   0.04382
 -1.39501   0.00000
  1.45448   0.00000
  1.45376   0.04569
  1.45161   0.09133
  1.44802   0.13688
  1.44301   0.18229
  1.43657   0.22753
  1.42871   0.27254
  1.41945   0.31728
  1.40878   0.36171
  1.39672   0.40579
  1.38329   0.44946
  1.36849   0.49269
  1.35234   0.53543
  1.33485   0.57764
  1.31605   0.61929
  1.29595   0.66032
  1.27457   0.70070
  1.25193   0.74039
  1.22806   0.77935
  1.20297   0.81754
  1.17670   0.85492
  1.14926   0.89146
  1.12069   0.92712
  1.09102   0.96186
  1.06027   0.99566
  1.02847   1.02847
  0.99566   1.06027
  0.96186   1.09102
  0.92712   1.12069
  0.89146   1.14926
  0.85492   1.17670
  0.81754   1.20297
  0.77935   1.22806
  0.74039   1.25193
  0.70070   1.27457
  0.66032   1.29595
  0.61929   1.31605
  0.57764   1.33485
  0.53543   1.35234
  0.49269   1.36849
  0.44946   1.38329
  0.40579   1.39672
  0.36171   1.40878
  0.31728   1.41945
  0.27254   1.42871
  0.22753   1.43657
  0.18229   1.44301
  0.13688   1.44802
  0.09133   1.45161
  0.04569   1.45376
  0.00000   1.45448
 -0.04569   1.45376
 -0.09133   1.45161
 -0.13688   1.44802
 -0.18229   1.44301
 -0.22753   1.43657
 -0.27254   1.42871
 -0.31728   1.41945
 -0.36171   1.40878
 -0.40579   1.39672
 -0.44946   1.38329
 -0.49269   1.36849
 -0.53543   1.35234
 -0.57764   1.33485
 -0.61929   1.31605
 -0.66032   1.29595
 -0.70070   1.27457
 -0.74039   1.25193
 -0.77935   1.22806
 -0.81754   1.20297
 -0.85492   1.17670
 -0.89146   1.14926
 -0.92712   1.12069
 -0.96186   1.09102
 -0.99566   1.06027
 -1.02847   1.02847
 -1.06027   0.99566
 -1.09102   0.96186
 -1.12069   0.92712
 -1.14926   0.89146
 -1.17670   0.85492
 -1.20297   0.81754
 -1.22806   0.77935
 -1.25193   0.74039
 -1.27457   0.70070
 -1.29595   0.66032
 -1.31605   0.61929
 -1.33485   0.57764
 -1.35234   0.53543
 -1.36849   0.49269
 -1.38329   0.44946
 -1.39672   0.40579
 -1.40878   0.36171
 -1.41945   0.31728
 -1.42871   0.27254
 -1.43657   0.22753
 -1.44301   0.18229
 -1.44802   0.13688
 -1.45161   0.09133
 -1.45376   0.04569
 -1.45448   0.00000
  1.51706   0.00000
  1.51631   0.04765
  1.51406   0.09526
  1.51033   0.14277
  1.50510   0.19014
  1.49838   0.23732
  1.49019   0.28427
  1.48052   0.33094
  1.46940   0.37728
  1.45682   0.42325
  1.44281   0.46880
  1.42737   0.51388
  1.41052   0.55847
  1.39229   0.60250
  1.37267   0.64593
  1.35171   0.68873
  1.32941   0.73085
  1.30580   0.77225
  1.28089   0.81288
  1.25473   0.85271
  1.22733   0.89170
  1.19871   0.92982
  1.16891   0.96701
  1.13796   1.00325
  1.10589   1.03850
  1.07272   1.07272
  1.03850   1.10589
  1.00325   1.13796
  0.96701   1.16891
  0.92982   1.19871
  0.89170   1.22733
  0.85271   1.25473
  0.81288   1.28089
  0.77225   1.30580
  0.73085   1.32941
  0.68873   1.35171
  0.64593   1.37267
  0.60250   1.39229
  0.55847   1.41052
  0.51388   1.42737
  0.46880   1.44281
  0.42325   1.45682
  0.37728   1.46940
  0.33094   1.48052
  0.28427   1.49019
  0.23732   1.49838
  0.19014   1.50510
  0.14277   1.51033
  0.09526   1.51406
  0.04765   1.51631
  0.00000   1.51706
 -0.04765   1.51631
 -0.09526   1.51406
 -0.14277   1.51033
 -0.19014   1.50510
 -0.23732   1.49838
 -0.28427   1.49019
 -0.33094   1.48052
 -0.37728   1.46940
 -0.42325   1.45682
 -0.46880   1.44281
 -0.51388   1.42737
 -0.55847   1.41052
 -0.60250   1.39229
 -0.64593   1.37267
 -0.68873   1.35171
 -0.73085   1.32941
 -0.77225   1.30580
 -0.81288   1.28089
 -0.85271   1.25473
 -0.89170   1.22733
 -0.92982   1.19871
 -0.96701   1.16891
 -1.00325   1.13796
 -1.03850   1.10589
 -1.07272   1.07272
 -1.10589   1.03850
 -1.13796   1.00325
 -1.16891   0.96701
 -1.19871   0.92982
 -1.22733   0.89170
 -1.25473   0.85271
 -1.28089   0.81288
 -1.30580   0.77225
 -1.32941   0.73085
 -1.35171   0.68873
 -1.37267   0.64593
 -1.39229   0.60250
 -1.41052   0.55847
 -1.42737   0.51388
 -1.44281   0.46880
 -1.45682   0.42325
 -1.46940   0.37728
 -1.48052   0.33094
 -1.49019   0.28427
 -1.49838   0.23732
 -1.50510   0.19014
 -1.51033   0.14277
 -1.51406   0.09526
 -1.51631   0.04765
 -1.51706   0.00000
  1.58275   0.00000
  1.58197   0.04972
  1.57963   0.09938
  1.57573   0.14895
  1.57027   0.19837
  1.56327   0.24760
  1.55472   0.29658
  1.54464   0.34527
  1.53303   0.39361
  1.51991   0.44157
  1.50529   0.48910
  1.48918   0.53614
  1.47161   0.58265
  1.45258   0.62859
  1.43212   0.67390
  1.41024   0.71856
  1.38698   0.76250
  1.36234   0.80569
  1.33636   0.84808
  1.30906   0.88964
  1.28047   0.93032
  1.25062   0.97008
  1.21953   1.00889
  1.18724   1.04669
  1.15378   1.08347
  1.11918   1.11918
  1.08347   1.15378
  1.04669   1.18724
  1.00889   1.21953
  0.97008   1.25062
  0.93032   1.28047
  0.88964   1.30906
  0.84808   1.33636
  0.80569   1.36234
  0.76250   1.38698
  0.71856   1.41024
  0.67390   1.43212
  0.62859   1.45258
  0.58265   1.47161
  0.53614   1.48918
  0.48910   1.50529
  0.44157   1.51991
  0.39361   1.53303
  0.34527   1.54464
  0.29658   1.55472
  0.24760   1.56327
  0.19837   1.57027
  0.14895   1.57573
  0.09938   1.57963
  0.04972   1.58197
  0.00000   1.58275
 -0.04972   1.58197
 -0.09938   1.57963
 -0.14895   1.57573
 -0.19837   1.57027
 -0.24760   1.56327
 -0.29658   1.55472
 -0.34527   1.54464
 -0.39361   1.53303
 -0.44157   1.51991
 -0.48910   1.50529
 -0.53614   1.48918
 -0.58265   1.47161
 -0.62859   1.45258
 -0.67390   1.43212
 -0.71856   1.41024
 -0.76250   1.38698
 -0.80569   1.36234
 -0.84808   1.33636
 -0.88964   1.30906
 -0.93032   1.28047
 -0.97008   1.25062
 -1.00889   1.21953
 -1.04669   1.18724
 -1.08347   1.15378
 -1.11918   1.11918
 -1.15378   1.08347
 -1.18724   1.04669
 -1.21953   1.00889
 -1.25062   0.97008
 -1.28047   0.93032
 -1.30906   0.88964
 -1.33636   0.84808
 -1.36234   0.80569
 -1.38698   0.76250
 -1.41024   0.71856
 -1.43212   0.67390
 -1.45258   0.62859
 -1.47161   0.58265
 -1.48918   0.53614
 -1.50529   0.48910
 -1.51991   0.44157
 -1.53303   0.39361
 -1.54464   0.34527
 -1.55472   0.29658
 -1.56327   0.24760
 -1.57027   0.19837
 -1.57573   0.14895
 -1.57963   0.09938
 -1.58197   0.04972
 -1.58275   0.00000
  1.65156   0.00000
  1.65075   0.05188
  1.64831   0.10370
  1.64424   0.15543
  1.63854   0.20700
  1.63123   0.25836
  1.62231   0.30947
  1.61179   0.36028
  1.59968   0.41073
  1.58599   0.46077
  1.57073   0.51036
  1.55393   0.55945
  1.53559   0.60798
  1.51573   0.65592
  1.49438   0.70320
  1.47156   0.74979
  1.44728   0.79565
  1.42157   0.84071
  1.39446   0.88495
  1.36598   0.92832
  1.33614   0.97077
  1.30499   1.01226
  1.27255   1.05275
  1.23886   1.09220
  1.20394   1.13057
  1.16783   1.16783
  1.13057   1.20394
  1.09220   1.23886
  1.05275   1.27255
  1.01226   1.30499
  0.97077   1.33614
  0.92832   1.36598
  0.88495   1.39446
  0.84071   1.42157
  0.79565   1.44728
  0.74979   1.47156
  0.70320   1.49438
  0.65592   1.51573
  0.60798   1.53559
  0.55945   1.55393
  0.51036   1.57073
  0.46077   1.58599
  0.41073   1.59968
  0.36028   1.61179
  0.30947   1.62231
  0.25836   1.63123
  0.20700   1.63854
  0.15543   1.64424
  0.10370   1.64831
  0.05188   1.65075
  0.00000   1.65156
 -0.05188   1.65075
 -0.10370   1.64831
 -0.15543   1.64424
 -0.20700   1.63854
 -0.25836   1.63123
 -0.30947   1.62231
 -0.36028   1.61179
 -0.41073   1.59968
 -0.46077   1.58599
 -0.51036   1.57073
 -0.55945   1.55393
 -0.60798   1.53559
 -0.65592   1.51573
 -0.70320   1.49438
 -0.74979   1.47156
 -0.79565   1.44728
 -0.84071   1.42157
 -0.88495   1.39446
 -0.92832   1.36598
 -0.97077   1.33614
 -1.01226   1.30499
 -1.05275   1.27255
 -1.09220   1.23886
 -1.13057   1.20394
 -1.16783   1.16783
 -1.20394   1.13057
 -1.23886   1.09220
 -1.27255   1.05275
 -1.30499   1.01226
 -1.33614   0.97077
 -1.36598   0.92832
 -1.39446   0.88495
 -1.42157   0.84071
 -1.44728   0.79565
 -1.47156   0.74979
 -1.49438   0.70320
 -1.51573   0.65592
 -1.53559   0.60798
 -1.55393   0.55945
 -1.57073   0.51036
 -1.58599   0.46077
 -1.59968   0.41073
 -1.61179   0.36028
 -1.62231   0.30947
 -1.63123   0.25836
 -1.63854   0.20700
 -1.64424   0.15543
 -1.64831   0.10370
 -1.65075   0.05188
 -1.65156   0.00000
  1.72349   0.00000
  1.72264   0.05414
  1.72009   0.10822
  1.71584   0.16219
  1.70990   0.21601
  1.70227   0.26961
  1.69296   0.32295
  1.68198   0.37597
  1.66934   0.42861
  1.65506   0.48084
  1.63914   0.53259
  1.62160   0.58381
  1.60246   0.63446
  1.58174   0.68448
  1.55946   0.73383
  1.53564   0.78245
  1.51031   0.83030
  1.48348   0.87733
  1.45519   0.92349
  1.42547   0.96875
  1.39433   1.01304
  1.36182   1.05634
  1.32797   1.09859
  1.29281   1.13976
  1.25637   1.17981
  1.21869   1.21869
  1.17981   1.25637
  1.13976   1.29281
  1.09859   1.32797
  1.05634   1.36182
  1.01304   1.39433
  0.96875   1.42547
  0.92349   1.45519
  0.87733   1.48348
  0.83030   1.51031
  0.78245   1.53564
  0.73383   1.55946
  0.68448   1.58174
  0.63446   1.60246
  0.58381   1.62160
  0.53259   1.63914
  0.48084   1.65506
  0.42861   1.66934
  0.37597   1.68198
  0.32295   1.69296
  0.26961   1.70227
  0.21601   1.70990
  0.16219   1.71584
  0.10822   1.72009
  0.05414   1.72264
  0.00000   1.72349
 -0.05414   1.72264
 -0.10822   1.72009
 -0.16219   1.71584
 -0.21601   1.70990
 -0.26961   1.70227
 -0.32295   1.69296
 -0.37597   1.68198
 -0.42861   1.66934
 -0.48084   1.65506
 -0.53259   1.63914
 -0.58381   1.62160
 -0.63446   1.60246
 -0.68448   1.58174
 -0.73383   1.55946
 -0.78245   1.53564
 -0.83030   1.51031
 -0.87733   1.48348
 -0.92349   1.45519
 -0.96875   1.42547
 -1.01304   1.39433
 -1.05634   1.36182
 -1.09859   1.32797
 -1.13976   1.29281
 -1.17981   1.25637
 -1.21869   1.21869
 -1.25637   1.17981
 -1.29281   1.13976
 -1.32797   1.09859
 -1.36182   1.05634